generated by VMD, t= 0.000000
97160
    18G11  C071    1   8.212   4.126  10.286
    18G11  C07L    2   8.248   4.205  10.171
    18G11  C07M    3   8.199   4.332  10.143
    18G11  C07Y    4   8.230   4.401  10.021
    18G11  C081    5   8.310   4.338   9.921
    18G11  C082    6   8.342   4.418   9.805
    18G11  C0DI    7   8.424   4.391   9.685
    18G11  C0DH    8   8.493   4.274   9.641
    18G11  C0DG    9   8.533   4.286   9.501
    18G11  C0E9   10   8.662   4.249   9.440
    18G11  C0E8   11   8.693   4.364   9.349
    18G11  C0E7   12   8.770   4.368   9.219
    18G11  C0EB   13   8.838   4.249   9.176
    18G11  C0EF   14   8.879   4.211   9.038
    18G11  C0EE   15   8.845   4.269   8.916
    18G11  C0FD   16   8.825   4.184   8.803
    18G11  C0FE   17   8.804   4.041   8.812
    18G11  H01B   18   8.774   4.000   8.908
    18G11  C0FF   19   8.789   3.955   8.699
    18G11  H01A   20   8.773   3.848   8.705
    18G11  C0FG   21   8.784   4.014   8.574
    18G11  H018   22   8.776   3.957   8.482
    18G11  C0FH   23   8.786   4.157   8.566
    18G11  C0FI   24   8.770   4.222   8.441
    18G11  H019   25   8.766   4.160   8.352
    18G11  O00K   26   8.775   4.355   8.424
    18G11  C0FL   27   8.809   4.428   8.536
    18G11  C0FK   28   8.831   4.375   8.666
    18G11  C0FM   29   8.853   4.461   8.772
    18G11  C0FN   30   8.878   4.599   8.740
    18G11  C0FP   31   8.862   4.645   8.608
    18G11  C0GO   32   8.876   4.778   8.575
    18G11  C0GN   33   8.824   4.841   8.463
    18G11  C0GR   34   8.780   4.748   8.362
    18G11  C0GS   35   8.739   4.797   8.235
    18G11  H01Q   36   8.728   4.730   8.151
    18G11  C0GT   37   8.739   4.934   8.220
    18G11  H01O   38   8.706   4.976   8.126
    18G11  C0GU   39   8.771   5.027   8.321
    18G11  H01P   40   8.778   5.134   8.306
    18G11  O00L   41   8.794   4.611   8.379
    18G11  C0GM   42   8.808   4.979   8.449
    18G11  C0GL   43   8.836   5.056   8.566
    18G11  H01R   44   8.817   5.162   8.563
    18G11  C0GK   45   8.902   4.997   8.674
    18G11  C0GP   46   8.929   5.044   8.808
    18G11  C0E2   47   8.969   4.933   8.891
    18G11  C0E1   48   8.919   4.947   9.019
    18G11  C0DU   49   8.848   4.847   9.097
    18G11  C0DT   50   8.852   4.709   9.085
    18G11  C0E4   51   8.885   4.637   8.972
    18G11  C0E5   52   8.854   4.503   9.004
    18G11  C0DS   53   8.784   4.623   9.178
    18G11  C0DR   54   8.697   4.688   9.271
    18G11  C0DD   55   8.617   4.627   9.368
    18G11  C0DC   56   8.535   4.740   9.420
    18G11  C0DP   57   8.572   4.867   9.357
    18G11  C0DA   58   8.516   5.003   9.373
    18G11  C0D9   59   8.438   5.058   9.484
    18G11  C0CR   60   8.406   5.199   9.489
    18G11  C0C0   61   8.432   5.288   9.385
    18G11  C0BZ   62   8.421   5.423   9.383
    18G11  C0C1   63   8.467   5.498   9.275
    18G11  C0C7   64   8.467   5.644   9.285
    18G11  C0C6   65   8.523   5.722   9.178
    18G11  C0C9   66   8.529   5.854   9.193
    18G11  C0B8   67   8.586   5.933   9.091
    18G11  C0B7   68   8.597   6.076   9.100
    18G11  C0B6   69   8.659   6.178   9.020
    18G11  C0B5   70   8.782   6.161   8.948
    18G11  H00Z   71   8.824   6.066   8.918
    18G11  C0B4   72   8.842   6.297   8.941
    18G11  H010   73   8.937   6.324   8.896
    18G11  C0B3   74   8.753   6.386   9.017
    18G11  C0AP   75   8.732   6.511   9.105
    18G11  C0AQ   76   8.612   6.479   9.169
    18G11  C0AR   77   8.593   6.530   9.297
    18G11  C0AS   78   8.519   6.451   9.374
    18G11  C0AT   79   8.478   6.322   9.351
    18G11  C0BA   80   8.513   6.264   9.229
    18G11  C0AU   81   8.422   6.244   9.446
    18G11  C0BE   82   8.417   6.106   9.430
    18G11  C0BI   83   8.358   6.036   9.535
    18G11  C0BJ   84   8.318   6.097   9.655
    18G11  C0BK   85   8.280   6.021   9.761
    18G11  C0BW   86   8.273   5.881   9.746
    18G11  C0BV   87   8.310   5.823   9.624
    18G11  C0BU   88   8.312   5.683   9.616
    18G11  C0BX   89   8.358   5.623   9.502
    18G11  C0BT   90   8.260   5.608   9.720
    18G11  C0CD   91   8.267   5.469   9.714
    18G11  C0CB   92   8.333   5.407   9.607
    18G11  C0CE   93   8.222   5.391   9.818
    18G11  C0CK   94   8.157   5.454   9.926
    18G11  C0BS   95   8.148   5.589   9.935
    18G11  C0CJ   96   8.089   5.651  10.050
    18G11  C0BP   97   8.099   5.789  10.062
    18G11  C0CI   98   8.055   5.858  10.182
    18G11  C0CH   99   8.111   5.986  10.203
    18G11  H012  100   8.104   6.031  10.301
    18G11  C0BN  101   8.161   6.068  10.100
    18G11  C0CG  102   8.173   6.208  10.113
    18G11  C0CF  103   8.121   6.281  10.223
    18G11  H013  104   8.065   6.233  10.302
    18G11  O00G  105   8.144   6.414  10.245
    18G11  C0AA  106   8.219   6.480  10.153
    18G11  C0A9  107   8.256   6.612  10.184
    18G11  H00U  108   8.227   6.653  10.280
    18G11  C0A8  109   8.339   6.682  10.102
    18G11  H00V  110   8.386   6.769  10.146
    18G11  C0A7  111   8.376   6.630   9.971
    18G11  C0A6  112   8.329   6.497   9.935
    18G11  C0A5  113   8.357   6.425   9.819
    18G11  C0A4  114   8.419   6.501   9.714
    18G11  C0A3  115   8.483   6.629   9.681
    18G11  C0A2  116   8.533   6.709   9.775
    18G11  C0A1  117   8.599   6.832   9.744
    18G11  C0A0  118   8.671   6.889   9.630
    18G11  C09Z  119   8.737   7.019   9.657
    18G11  C09Y  120   8.815   7.086   9.548
    18G11  H00Y  121   8.840   7.189   9.564
    18G11  C09X  122   8.838   7.020   9.427
    18G11  C09W  123   8.916   7.075   9.325
    18G11  H00R  124   8.947   7.177   9.345
    18G11  C0AX  125   8.960   7.007   9.214
    18G11  H00S  126   9.019   7.050   9.135
    18G11  C0AW  127   8.906   6.881   9.196
    18G11  H00T  128   8.933   6.821   9.111
    18G11  C0AN  129   8.813   6.819   9.282
    18G11  C0AO  130   8.756   6.694   9.257
    18G11  C0AM  131   8.783   6.890   9.404
    18G11  C0B2  132   8.730   7.101   9.776
    18G11  O00D  133   8.782   7.209   9.786
    18G11  C0B1  134   8.657   7.045   9.883
    18G11  H00W  135   8.639   7.101   9.973
    18G11  C0AL  136   8.697   6.824   9.504
    18G11  C0AK  137   8.639   6.701   9.466
    18G11  C0B0  138   8.587   6.915   9.857
    18G11  C0AZ  139   8.490   6.858   9.946
    18G11  H00X  140   8.460   6.903  10.039
    18G11  C0AJ  141   8.541   6.626   9.548
    18G11  C0AH  142   8.416   6.437   9.589
    18G11  C0AE  143   8.320   6.293   9.797
    18G11  C0AD  144   8.268   6.221   9.901
    18G11  C0AY  145   8.471   6.718   9.906
    18G11  C0AB  146   8.262   6.419  10.033
    18G11  C0AC  147   8.229   6.285  10.018
    18G11  C0BM  148   8.185   6.006   9.981
    18G11  C0CM  149   7.969   5.794  10.271
    18G11  C09M  150   7.972   5.648  10.273
    18G11  C098  151   7.952   5.588  10.399
    18G11  C08R  152   7.922   5.449  10.432
    18G11  C08Q  153   7.883   5.433  10.563
    18G11  C08P  154   7.802   5.342  10.639
    18G11  C08Y  155   7.733   5.397  10.747
    18G11  C097  156   7.740   5.526  10.775
    18G11  C096  157   7.638   5.576  10.841
    18G11  C090  158   7.571   5.460  10.889
    18G11  C095  159   7.498   5.452  11.008
    18G11  C094  160   7.480   5.325  11.077
    18G11  C08J  161   7.495   5.181  11.040
    18G11  C08I  162   7.538   5.117  11.158
    18G11  C08H  163   7.617   4.994  11.115
    18G11  C08G  164   7.641   5.009  10.970
    18G11  C08F  165   7.693   4.927  10.858
    18G11  C08E  166   7.709   4.784  10.866
    18G11  C059  167   7.671   4.704  10.975
    18G11  C058  168   7.679   4.564  10.965
    18G11  C057  169   7.650   4.466  11.063
    18G11  C056  170   7.612   4.526  11.183
    18G11  C055  171   7.565   4.656  11.189
    18G11  C054  172   7.559   4.695  11.323
    18G11  C053  173   7.598   4.582  11.402
    18G11  C052  174   7.622   4.571  11.539
    18G11  C051  175   7.608   4.694  11.626
    18G11  C05U  176   7.591   4.835  11.583
    18G11  C05T  177   7.594   4.902  11.453
    18G11  C06K  178   7.523   5.025  11.484
    18G11  H00J  179   7.474   5.070  11.398
    18G11  C06L  180   7.526   5.054  11.625
    18G11  H00I  181   7.489   5.143  11.672
    18G11  C05V  182   7.558   4.929  11.684
    18G11  C06J  183   7.573   4.910  11.816
    18G11  H00K  184   7.562   4.997  11.879
    18G11  C05X  185   7.611   4.784  11.862
    18G11  C06I  186   7.622   4.750  12.002
    18G11  H00L  187   7.615   4.837  12.065
    18G11  C04Z  188   7.650   4.624  12.052
    18G11  C06H  189   7.658   4.602  12.192
    18G11  H00H  190   7.646   4.685  12.260
    18G11  C04Y  191   7.702   4.474  12.241
    18G11  C06G  192   7.724   4.454  12.385
    18G11  O009  193   7.707   4.541  12.474
    18G11  O008  194   7.775   4.324  12.420
    18G11  C04P  195   7.818   4.232  12.331
    18G11  C04J  196   7.883   4.111  12.368
    18G11  C04Q  197   7.906   4.069  12.499
    18G11  H00E  198   7.864   4.123  12.583
    18G11  C04M  199   7.981   3.949  12.529
    18G11  C04R  200   8.030   3.906  12.656
    18G11  H00F  201   8.004   3.960  12.745
    18G11  C04S  202   8.110   3.801  12.670
    18G11  H00G  203   8.147   3.769  12.766
    18G11  O007  204   8.144   3.723  12.564
    18G11  C03V  205   8.097   3.760  12.435
    18G11  C03U  206   8.134   3.679  12.325
    18G11  O006  207   8.204   3.565  12.351
    18G11  C03F  208   8.275   3.508  12.250
    18G11  C03E  209   8.237   3.528  12.117
    18G11  C03D  210   8.144   3.632  12.089
    18G11  C03C  211   8.112   3.659  11.954
    18G11  C03B  212   8.166   3.570  11.861
    18G11  C03A  213   8.127   3.586  11.732
    18G11  C039  214   8.049   3.697  11.689
    18G11  C038  215   8.050   3.679  11.539
    18G11  C037  216   8.131   3.564  11.514
    18G11  C036  217   8.154   3.514  11.392
    18G11  C02R  218   8.248   3.425  11.346
    18G11  C035  219   8.245   3.447  11.205
    18G11  C03R  220   8.155   3.544  11.168
    18G11  C03S  221   8.163   3.617  11.048
    18G11  C049  222   8.093   3.734  11.036
    18G11  C048  223   8.023   3.774  11.156
    18G11  C03P  224   8.032   3.711  11.292
    18G11  C047  225   7.945   3.887  11.133
    18G11  C046  226   7.874   3.956  11.226
    18G11  C045  227   7.856   3.948  11.362
    18G11  C03T  228   7.907   3.862  11.454
    18G11  C044  229   7.866   3.896  11.585
    18G11  C043  230   7.764   3.996  11.569
    18G11  C042  231   7.772   4.089  11.675
    18G11  C041  232   7.852   4.015  11.775
    18G11  C040  233   7.857   4.047  11.914
    18G11  C03Z  234   7.910   3.970  12.020
    18G11  C04H  235   7.882   4.046  12.135
    18G11  C04G  236   7.824   4.168  12.104
    18G11  C03N  237   7.985   3.847  12.037
    18G11  C03Y  238   8.019   3.821  12.176
    18G11  C03X  239   7.989   3.907  12.284
    18G11  C04F  240   7.801   4.173  11.969
    18G11  C04E  241   7.749   4.293  11.914
    18G11  C04O  242   7.717   4.397  12.005
    18G11  C04D  243   7.737   4.323  11.779
    18G11  C04V  244   7.687   4.447  11.737
    18G11  C04W  245   7.651   4.553  11.823
    18G11  C04C  246   7.748   4.234  11.666
    18G11  C04L  247   7.691   4.310  11.557
    18G11  C04U  248   7.656   4.259  11.428
    18G11  C05Q  249   7.638   4.345  11.319
    18G11  C05P  250   7.684   4.272  11.203
    18G11  C04T  251   7.738   4.153  11.232
    18G11  C04B  252   7.716   4.142  11.369
    18G11  C03M  253   7.904   3.886  11.724
    18G11  C04A  254   7.770   4.030  11.431
    18G11  C05H  255   7.813   4.060  11.155
    18G11  C05G  256   7.856   4.064  11.016
    18G11  C05F  257   7.816   4.160  10.920
    18G11  C05E  258   7.881   4.182  10.799
    18G11  C05L  259   7.980   4.112  10.715
    18G11  C05K  260   8.050   3.990  10.756
    18G11  C05J  261   8.034   3.916  10.886
    18G11  C066  262   8.138   3.937  10.656
    18G11  C065  263   8.153   3.995  10.532
    18G11  C064  264   8.097   4.121  10.507
    18G11  C06N  265   8.241   3.939  10.438
    18G11  C069  266   8.311   3.824  10.469
    18G11  C06P  267   8.397   3.769  10.375
    18G11  C06R  268   8.484   3.667  10.408
    18G11  C06B  269   8.468   3.603  10.530
    18G11  C06S  270   8.555   3.504  10.568
    18G11  C02G  271   8.543   3.442  10.693
    18G11  C02F  272   8.635   3.340  10.734
    18G11  C027  273   8.741   3.311  10.650
    18G11  C026  274   8.837   3.220  10.700
    18G11  C00E  275   8.943   3.190  10.619
    18G11  C00D  276   9.039   3.106  10.668
    18G11  C00C  277   9.151   3.088  10.587
    18G11  C00B  278   9.177   3.157  10.472
    18G11  C015  279   9.079   3.241  10.423
    18G11  C07F  280   9.100   3.304  10.302
    18G11  C07E  281   8.997   3.377  10.251
    18G11  C06W  282   8.880   3.402  10.329
    18G11  C06V  283   8.862   3.338  10.450
    18G11  C06X  284   8.783   3.494  10.282
    18G11  C07B  285   8.799   3.556  10.156
    18G11  C07C  286   8.912   3.528  10.080
    18G11  C0FU  287   8.929   3.597   9.958
    18G11  C0F7  288   9.048   3.578   9.882
    18G11  C0F6  289   9.068   3.645   9.759
    18G11  C0F8  290   9.189   3.622   9.693
    18G11  C0F9  291   9.208   3.687   9.569
    18G11  C0FA  292   9.327   3.670   9.499
    18G11  C0FZ  293   9.430   3.592   9.553
    18G11  C0G0  294   9.548   3.570   9.483
    18G11  C0GD  295   9.559   3.612   9.350
    18G11  C0FC  296   9.463   3.688   9.290
    18G11  C0GH  297   9.470   3.724   9.157
    18G11  C0EY  298   9.373   3.808   9.113
    18G11  C0EX  299   9.380   3.854   8.980
    18G11  C0EW  300   9.290   3.940   8.927
    18G11  C0FR  301   9.297   3.987   8.791
    18G11  H01D  302   9.236   4.070   8.760
    18G11  C0FS  303   9.400   3.945   8.713
    18G11  H01C  304   9.407   3.982   8.612
    18G11  C0GJ  305   9.481   3.848   8.761
    18G11  H01N  306   9.562   3.808   8.702
    18G11  C0EV  307   9.183   3.988   9.007
    18G11  C0FT  308   9.089   4.082   8.963
    18G11  H01E  309   9.094   4.136   8.869
    18G11  C0EU  310   9.162   3.932   9.136
    18G11  C0ET  311   9.066   3.978   9.225
    18G11  C0EI  312   9.047   3.937   9.351
    18G11  C0F1  313   9.136   3.842   9.398
    18G11  C0F0  314   9.246   3.806   9.320
    18G11  C0EH  315   8.933   3.980   9.429
    18G11  C0EG  316   8.848   4.089   9.389
    18G11  C0EJ  317   8.905   3.903   9.548
    18G11  C0F3  318   8.996   3.810   9.591
    18G11  C0EK  319   8.783   3.927   9.620
    18G11  C0EL  320   8.703   4.045   9.588
    18G11  C0EM  321   8.594   4.064   9.684
    18G11  C0EN  322   8.574   3.972   9.788
    18G11  C07I  323   8.479   4.013   9.882
    18G11  C074  324   8.454   3.948  10.001
    18G11  C073  325   8.366   4.010  10.089
    18G11  C072  326   8.346   3.943  10.213
    18G11  C075  327   8.533   3.841  10.035
    18G11  C076  328   8.628   3.796   9.940
    18G11  C078  329   8.721   3.701   9.986
    18G11  C07G  330   8.526   3.793  10.168
    18G11  C070  331   8.613   3.692  10.206
    18G11  C07Z  332   8.441   4.141   9.847
    18G11  C077  333   8.649   3.854   9.813
    18G11  C0EO  334   8.762   3.846   9.734
    18G11  C0F4  335   8.856   3.755   9.785
    18G11  C0EQ  336   8.981   4.075   9.180
    18G11  C0FQ  337   9.482   3.798   8.893
    18G11  C0GI  338   9.580   3.720   8.949
    18G11  H01L  339   9.672   3.697   8.897
    18G11  C0EZ  340   9.258   3.845   9.188
    18G11  C0GG  341   9.579   3.682   9.080
    18G11  C0GF  342   9.683   3.608   9.141
    18G11  H01M  343   9.780   3.584   9.100
    18G11  C0GE  344   9.668   3.575   9.276
    18G11  H01K  345   9.752   3.533   9.329
    18G11  O00J  346   9.651   3.499   9.538
    18G11  C0GA  347   9.637   3.445   9.661
    18G11  C0G9  348   9.745   3.379   9.716
    18G11  H01H  349   9.840   3.364   9.667
    18G11  C0G8  350   9.735   3.323   9.845
    18G11  C0G7  351   9.849   3.269   9.912
    18G11  H01I  352   9.943   3.291   9.863
    18G11  O00I  353   9.838   3.234  10.046
    18G11  C0G6  354   9.713   3.216  10.096
    18G11  H01J  355   9.714   3.175  10.196
    18G11  C02D  356   9.595   3.268  10.035
    18G11  C02C  357   9.464   3.258  10.090
    18G11  C017  358   9.433   3.186  10.206
    18G11  C016  359   9.311   3.200  10.279
    18G11  O001  360   9.527   3.098  10.249
    18G11  C018  361   9.527   3.053  10.382
    18G11  C009  362   9.405   3.059  10.461
    18G11  C008  363   9.377   3.007  10.592
    18G11  C007  364   9.459   2.945  10.695
    18G11  C006  365   9.600   2.933  10.681
    18G11  C005  366   9.684   2.891  10.790
    18G11  C004  367   9.653   2.871  10.934
    18G11  C003  368   9.530   2.883  11.010
    18G11  C002  369   9.537   2.872  11.155
    18G11  C00P  370   9.419   2.889  11.234
    18G11  C00O  371   9.420   2.883  11.375
    18G11  C00N  372   9.307   2.905  11.455
    18G11  C010  373   9.320   2.918  11.594
    18G11  C011  374   9.212   2.959  11.672
    18G11  C01Q  375   9.230   2.991  11.809
    18G11  C01U  376   9.354   2.968  11.873
    18G11  C012  377   9.463   2.932  11.788
    18G11  H000  378   9.562   2.920  11.830
    18G11  C01V  379   9.357   2.986  12.013
    18G11  H007  380   9.437   2.951  12.077
    18G11  O005  381   9.246   3.034  12.086
    18G11  C01W  382   9.147   3.091  12.017
    18G11  C031  383   9.054   3.166  12.087
    18G11  C032  384   8.949   3.227  12.009
    18G11  H00A  385   8.876   3.296  12.049
    18G11  C033  386   8.948   3.201  11.872
    18G11  H00B  387   8.877   3.253  11.810
    18G11  C01O  388   9.019   3.092  11.813
    18G11  C01N  389   8.989   3.036  11.691
    18G11  C01M  390   8.857   3.050  11.631
    18G11  C01L  391   8.719   3.113  11.650
    18G11  C01K  392   8.661   3.124  11.525
    18G11  C01Y  393   8.557   3.208  11.488
    18G11  C02I  394   8.486   3.271  11.588
    18G11  C02N  395   8.374   3.349  11.548
    18G11  C02M  396   8.303   3.422  11.653
    18G11  C02L  397   8.347   3.408  11.788
    18G11  C02K  398   8.445   3.313  11.822
    18G11  C02U  399   8.472   3.290  11.957
    18G11  C02V  400   8.404   3.365  12.056
    18G11  C03H  401   8.438   3.345  12.192
    18G11  H00C  402   8.523   3.289  12.229
    18G11  C02W  403   8.565   3.190  11.994
    18G11  C02X  404   8.647   3.143  11.893
    18G11  C02Y  405   8.723   3.037  11.955
    18G11  H008  406   8.793   2.963  11.919
    18G11  C02Z  407   8.682   3.025  12.092
    18G11  O004  408   8.719   2.947  12.178
    18G11  O003  409   8.589   3.123  12.108
    18G11  C02J  410   8.524   3.244  11.723
    18G11  C01Z  411   8.543   3.217  11.350
    18G11  C020  412   8.620   3.152  11.252
    18G11  C01I  413   8.720   3.068  11.292
    18G11  C01H  414   8.830   3.034  11.217
    18G11  C00K  415   8.948   2.979  11.273
    18G11  C01S  416   8.956   2.970  11.408
    18G11  C014  417   9.075   2.946  11.474
    18G11  C00J  418   9.058   2.950  11.198
    18G11  C00I  419   9.045   2.972  11.063
    18G11  C00H  420   8.930   3.033  11.005
    18G11  C00G  421   8.924   3.079  10.873
    18G11  C00S  422   9.156   2.942  10.985
    18G11  C00T  423   9.134   2.970  10.849
    18G11  C00U  424   9.249   2.954  10.772
    18G11  C00R  425   9.286   2.906  11.036
    18G11  C00L  426   9.175   2.917  11.254
    18G11  C028  427   8.824   3.065  11.083
    18G11  C023  428   8.720   3.143  11.035
    18G11  C024  429   8.720   3.193  10.907
    18G11  C021  430   8.616   3.184  11.116
    18G11  C022  431   8.526   3.268  11.077
    18G11  C02H  432   8.526   3.322  10.948
    18G11  C030  433   8.431   3.413  10.901
    18G11  C034  434   8.331   3.451  10.985
    18G11  C02P  435   8.431   3.316  11.168
    18G11  C02B  436   8.436   3.293  11.305
    18G11  C01J  437   8.739   3.058  11.433
    18G11  C01X  438   8.637   3.162  11.757
    18G11  C01T  439   8.853   3.019  11.492
    18G11  H009  440   9.059   3.185  12.193
    18G11  C01P  441   9.131   3.057  11.877
    18G11  C01R  442   9.086   2.973  11.614
    18G11  C00Z  443   9.444   2.901  11.650
    18G11  O000  444   9.554   2.869  11.577
    18G11  C00M  445   9.182   2.920  11.391
    18G11  C00Y  446   9.547   2.865  11.438
    18G11  C013  447   9.662   2.850  11.356
    18G11  H001  448   9.757   2.849  11.407
    18G11  C00Q  449   9.293   2.901  11.176
    18G11  C001  450   9.657   2.862  11.223
    18G11  C000  451   9.768   2.868  11.149
    18G11  H006  452   9.862   2.883  11.199
    18G11  C00W  453   9.403   2.893  10.956
    18G11  C01G  454   9.776   2.866  11.011
    18G11  H005  455   9.873   2.871  10.963
    18G11  C01C  456   9.814   2.850  10.726
    18G11  H002  457   9.908   2.817  10.765
    18G11  C01B  458   9.801   2.882  10.587
    18G11  C01D  459   9.897   2.857  10.488
    18G11  H003  460   9.988   2.803  10.509
    18G11  C01E  461   9.864   2.899  10.364
    18G11  H004  462   9.930   2.876  10.282
    18G11  O002  463   9.745   2.963  10.327
    18G11  C01A  464   9.671   2.940  10.558
    18G11  C00V  465   9.383   2.922  10.817
    18G11  C019  466   9.646   2.985  10.425
    18G11  C02E  467   9.361   3.336  10.040
    18G11  C0FX  468   9.382   3.406   9.922
    18G11  C0FW  469   9.275   3.478   9.869
    18G11  C0GB  470   9.503   3.400   9.855
    18G11  C0G3  471   9.235   3.345  10.104
    18G11  C07H  472   9.133   3.431  10.054
    18G11  C0GC  473   9.613   3.333   9.913
    18G11  C0G2  474   9.515   3.463   9.733
    18G11  C0G1  475   9.412   3.531   9.673
    18G11  C0FB  476   9.349   3.722   9.372
    18G11  C0F2  477   9.115   3.781   9.520
    18G11  C0FY  478   9.294   3.543   9.747
    18G11  C0F5  479   8.972   3.739   9.711
    18G11  C0FV  480   9.149   3.490   9.932
    18G11  C079  481   8.835   3.687   9.906
    18G11  C07A  482   8.710   3.650  10.112
    18G11  C06Y  483   8.674   3.531  10.365
    18G11  C07D  484   9.014   3.441  10.129
    18G11  C01F  485   9.212   3.284  10.227
    18G11  C00A  486   9.303   3.134  10.402
    18G11  C00X  487   9.248   3.011  10.644
    18G11  C00F  488   9.032   3.049  10.798
    18G11  C029  489   8.961   3.258  10.498
    18G11  C025  490   8.822   3.161  10.825
    18G11  C06U  491   8.749   3.370  10.523
    18G11  C02A  492   8.626   3.282  10.857
    18G11  C05Y  493   8.441   3.480  10.782
    18G11  C05Z  494   8.352   3.586  10.746
    18G11  C060  495   8.258   3.630  10.834
    18G11  C062  496   8.191   3.749  10.809
    18G11  C06T  497   8.656   3.466  10.482
    18G11  C06A  498   8.373   3.653  10.624
    18G11  C06Z  499   8.588   3.629  10.331
    18G11  C06Q  500   8.424   3.832  10.253
    18G11  C068  501   8.298   3.762  10.592
    18G11  C067  502   8.202   3.810  10.686
    18G11  C063  503   8.010   4.179  10.595
    18G11  C06C  504   7.972   4.313  10.566
    18G11  C06D  505   7.890   4.384  10.653
    18G11  C06E  506   7.867   4.518  10.651
    18G11  C07Q  507   7.914   4.591  10.547
    18G11  C07P  508   7.990   4.525  10.444
    18G11  C07T  509   8.040   4.598  10.336
    18G11  C07U  510   8.096   4.531  10.232
    18G11  C07V  511   8.142   4.602  10.123
    18G11  C084  512   8.118   4.739  10.115
    18G11  C08C  513   8.050   4.801  10.217
    18G11  C08B  514   8.020   4.937  10.212
    18G11  C08A  515   7.961   4.995  10.319
    18G11  C089  516   7.911   4.925  10.423
    18G11  C088  517   7.848   5.000  10.526
    18G11  C087  518   7.800   4.931  10.636
    18G11  C086  519   7.823   4.795  10.646
    18G11  C08X  520   7.840   5.141  10.518
    18G11  C08T  521   7.881   5.211  10.401
    18G11  C08D  522   7.934   4.795  10.432
    18G11  C08U  523   7.940   5.130  10.305
    18G11  C08V  524   7.993   5.210  10.201
    18G11  C0CY  525   8.062   5.153  10.102
    18G11  C0CX  526   8.115   5.236  10.013
    18G11  C0CW  527   8.180   5.170   9.911
    18G11  C0CV  528   8.199   5.032   9.913
    18G11  C0D4  529   8.139   4.951  10.012
    18G11  C0CU  530   8.263   4.973   9.807
    18G11  C0CT  531   8.312   5.048   9.701
    18G11  C0CS  532   8.299   5.187   9.701
    18G11  C0D6  533   8.268   4.834   9.810
    18G11  C0EC  534   8.223   4.752   9.906
    18G11  C07X  535   8.230   4.610   9.904
    18G11  C0DL  536   8.316   4.776   9.699
    18G11  C0DK  537   8.333   4.638   9.697
    18G11  C0DN  538   8.405   4.612   9.584
    18G11  C0D8  539   8.373   4.840   9.589
    18G11  C08W  540   7.956   5.343  10.220
    18G11  C0CQ  541   8.028   5.434  10.132
    18G11  C093  542   8.073   5.015  10.109
    18G11  C092  543   8.162   4.814  10.013
    18G11  C085  544   8.012   4.735  10.334
    18G11  C07S  545   7.892   4.728  10.544
    18G11  C06F  546   7.792   4.584  10.750
    18G11  C07O  547   8.021   4.387  10.454
    18G11  C07N  548   8.099   4.326  10.365
    18G11  C05D  549   7.836   4.310  10.756
    18G11  C05C  550   7.755   4.370  10.846
    18G11  C05N  551   7.748   4.284  10.959
    18G11  C05M  552   7.947   3.959  11.003
    18G11  C05I  553   8.103   3.798  10.911
    18G11  C061  554   8.247   3.560  10.951
    18G11  C02Q  555   8.337   3.404  11.115
    18G11  C02O  556   8.355   3.354  11.405
    18G11  C03Q  557   8.103   3.591  11.286
    18G11  C03O  558   7.995   3.758  11.423
    18G11  C03L  559   7.992   3.786  11.779
    18G11  C02S  560   8.197   3.515  11.628
    18G11  C02T  561   8.271   3.479  11.885
    18G11  C03K  562   8.021   3.763  11.922
    18G11  C03I  563   8.301   3.454  12.019
    18G11  C03G  564   8.375   3.416  12.292
    18G11  H00D  565   8.392   3.389  12.395
    18G11  C03J  566   8.097   3.708  12.194
    18G11  C03W  567   8.025   3.877  12.414
    18G11  C04I  568   7.920   4.024  12.268
    18G11  C04K  569   7.790   4.258  12.199
    18G11  C04N  570   7.735   4.375  12.150
    18G11  C04X  571   7.670   4.524  11.959
    18G11  C050  572   7.621   4.680  11.767
    18G11  C05W  573   7.661   4.450  11.597
    18G11  C05S  574   7.598   4.826  11.327
    18G11  C05R  575   7.608   4.477  11.310
    18G11  C05O  576   7.691   4.333  11.077
    18G11  C05B  577   7.735   4.509  10.853
    18G11  C05A  578   7.621   4.748  11.102
    18G11  C07R  579   7.770   4.723  10.754
    18G11  C08N  580   7.732   4.999  10.738
    18G11  C08M  581   7.714   5.139  10.730
    18G11  C08L  582   7.631   5.203  10.826
    18G11  C091  583   7.627   4.867  11.184
    18G11  C09K  584   7.586   5.216  11.253
    18G11  H00M  585   7.648   5.215  11.341
    18G11  C08K  586   7.576   5.128  10.931
    18G11  C09J  587   7.520   5.344  11.213
    18G11  C09I  588   7.528   5.487  11.242
    18G11  C09L  589   7.539   5.564  11.364
    18G11  H00N  590   7.546   5.510  11.457
    18G11  C09Q  591   7.539   5.698  11.348
    18G11  H00O  592   7.551   5.762  11.434
    18G11  O00B  593   7.527   5.770  11.226
    18G11  C09G  594   7.537   5.697  11.109
    18G11  C09F  595   7.588   5.774  10.998
    18G11  O00A  596   7.571   5.908  11.008
    18G11  C09P  597   7.626   5.987  10.908
    18G11  H00P  598   7.662   6.077  10.955
    18G11  C09O  599   7.677   5.937  10.785
    18G11  C09D  600   7.704   5.797  10.782
    18G11  C09C  601   7.793   5.731  10.691
    18G11  C09N  602   7.870   5.764  10.575
    18G11  C09T  603   7.846   5.872  10.494
    18G11  C09S  604   7.776   5.989  10.549
    18G11  C0CP  605   7.780   6.073  10.431
    18G11  C0CN  606   7.842   6.018  10.320
    18G11  C0CO  607   7.840   6.095  10.205
    18G11  H014  608   7.877   6.058  10.110
    18G11  C0CZ  609   7.794   6.228  10.221
    18G11  H015  610   7.789   6.290  10.132
    18G11  C0D0  611   7.741   6.285  10.341
    18G11  C0G5  612   7.681   6.420  10.363
    18G11  H01F  613   7.685   6.495  10.285
    18G11  C0G4  614   7.634   6.457  10.483
    18G11  H01G  615   7.599   6.558  10.494
    18G11  O00H  616   7.637   6.380  10.592
    18G11  C0D2  617   7.673   6.249  10.577
    18G11  C09V  618   7.670   6.156  10.685
    18G11  H00Q  619   7.636   6.196  10.780
    18G11  C0D1  620   7.730   6.202  10.449
    18G11  C09R  621   7.716   6.025  10.677
    18G11  C09H  622   7.517   5.555  11.113
    18G11  C09E  623   7.643   5.712  10.879
    18G11  C09B  624   7.826   5.604  10.707
    18G11  C08Z  625   7.628   5.346  10.816
    18G11  C08O  626   7.780   5.206  10.625
    18G11  C09A  627   7.924   5.550  10.626
    18G11  C08S  628   7.884   5.348  10.341
    18G11  C099  629   7.953   5.652  10.532
    18G11  C09U  630   7.890   5.889  10.358
    18G11  C0BO  631   8.165   5.868   9.961
    18G11  C0CL  632   8.022   5.575  10.150
    18G11  C0D3  633   8.094   5.376  10.021
    18G11  C0D5  634   8.229   5.250   9.809
    18G11  C0BR  635   8.202   5.666   9.833
    18G11  C0BQ  636   8.214   5.805   9.848
    18G11  C0BL  637   8.242   6.084   9.879
    18G11  C0AF  638   8.342   6.231   9.674
    18G11  C0BH  639   8.355   5.900   9.520
    18G11  C0BG  640   8.406   5.837   9.403
    18G11  C0BD  641   8.474   6.050   9.315
    18G11  C0AG  642   8.383   6.300   9.565
    18G11  C0AI  643   8.491   6.503   9.496
    18G11  C0AV  644   8.658   6.645   9.342
    18G11  C0BB  645   8.565   6.347   9.134
    18G11  O00C  646   8.790   6.632   9.138
    18G11  C0BC  647   8.636   6.306   9.025
    18G11  C0B9  648   8.524   6.130   9.209
    18G11  O00E  649   8.644   5.877   8.987
    18G11  C0CA  650   8.635   5.750   8.961
    18G11  O00F  651   8.683   5.714   8.853
    18G11  C0BF  652   8.475   5.913   9.307
    18G11  C0C5  653   8.573   5.669   9.063
    18G11  C0C4  654   8.560   5.532   9.044
    18G11  H011  655   8.597   5.487   8.953
    18G11  C0C8  656   8.403   5.702   9.391
    18G11  C0C2  657   8.514   5.453   9.151
    18G11  C0C3  658   8.519   5.306   9.160
    18G11  C0DY  659   8.576   5.222   9.065
    18G11  H016  660   8.617   5.242   8.967
    18G11  C0DX  661   8.599   5.098   9.134
    18G11  C0DW  662   8.721   5.034   9.109
    18G11  C0BY  663   8.371   5.484   9.496
    18G11  C0DB  664   8.494   5.234   9.274
    18G11  C0CC  665   8.352   5.266   9.599
    18G11  C0D7  666   8.378   4.986   9.593
    18G11  C0DZ  667   8.535   5.100   9.266
    18G11  C0DM  668   8.425   4.730   9.511
    18G11  C0DQ  669   8.667   4.828   9.264
    18G11  C0DV  670   8.745   4.906   9.167
    18G11  C0E0  671   8.840   5.072   9.027
    18G11  C0FO  672   8.953   4.819   8.803
    18G11  C0E3  673   8.834   5.124   8.890
    18G11  H017  674   8.753   5.185   8.853
    18G11  C0GV  675   8.930   4.861   8.673
    18G11  C0ES  676   8.915   4.685   8.840
    18G11  C0GQ  677   8.819   4.563   8.507
    18G11  C0FJ  678   8.814   4.239   8.675
    18G11  C0ED  679   8.851   4.405   8.901
    18G11  C0ER  680   8.987   4.122   9.048
    18G11  C0EP  681   8.883   4.139   9.257
    18G11  C0E6  682   8.798   4.487   9.137
    18G11  C0DE  683   8.609   4.478   9.385
    18G11  C0EA  684   8.740   4.128   9.473
    18G11  C0DF  685   8.502   4.417   9.460
    18G11  C080  686   8.503   4.166   9.719
    18G11  C0DO  687   8.445   4.481   9.577
    18G11  C0DJ  688   8.294   4.550   9.800
    18G11  C07K  689   8.353   4.210   9.942
    18G11  C07W  690   8.195   4.537  10.014
    18G11  C083  691   8.128   4.393  10.242
    18G11  C07J  692   8.324   4.142  10.060
    18G11  C06O  693   8.262   3.997  10.305
    18G11  C06M  694   8.138   4.188  10.387
    28G11  C071  695   9.384  10.024  11.819
    28G11  C07L  696   9.488  10.086  11.890
    28G11  C07M  697   9.618  10.066  11.853
    28G11  C07Y  698   9.725  10.117  11.931
    28G11  C081  699   9.699  10.198  12.043
    28G11  C082  700   9.811  10.250  12.119
    28G11  C0DI  701   9.814  10.332  12.246
    28G11  C0DH  702   9.719  10.378  12.333
    28G11  C0DG  703   9.771  10.405  12.463
    28G11  C0E9  704   9.745  10.509  12.562
    28G11  C0E8  705   9.888  10.553  12.614
    28G11  C0E7  706   9.921  10.656  12.713
    28G11  C0EB  707   9.815  10.722  12.789
    28G11  C0EF  708   9.831  10.834  12.880
    28G11  C0EE  709   9.917  10.947  12.872
    28G11  C0FD  710   9.871  11.079  12.881
    28G11  C0FE  711   9.733  11.120  12.850
    28G11  H01B  712   9.660  11.044  12.827
    28G11  C0FF  713   9.683  11.250  12.849
    28G11  H01A  714   9.576  11.266  12.839
    28G11  C0FG  715   9.783  11.347  12.878
    28G11  H018  716   9.753  11.450  12.892
    28G11  C0FH  717   9.918  11.317  12.906
    28G11  C0FI  718  10.016  11.415  12.939
    28G11  H019  719   9.989  11.519  12.945
    28G11  O00K  720  10.142  11.381  12.973
    28G11  C0FL  721  10.180  11.252  12.959
    28G11  C0FK  722  10.092  11.147  12.935
    28G11  C0FM  723  10.141  11.013  12.927
    28G11  C0FN  724  10.281  10.993  12.950
    28G11  C0FP  725  10.365  11.103  12.965
    28G11  C0GO  726  10.503  11.087  12.972
    28G11  C0GN  727  10.596  11.186  12.960
    28G11  C0GR  728  10.540  11.320  12.967
    28G11  C0GS  729  10.626  11.428  12.956
    28G11  H01Q  730  10.580  11.525  12.965
    28G11  C0GT  731  10.758  11.411  12.929
    28G11  H01O  732  10.821  11.498  12.927
    28G11  C0GU  733  10.811  11.275  12.923
    28G11  H01P  734  10.915  11.267  12.897
    28G11  O00L  735  10.401  11.340  12.974
    28G11  C0GM  736  10.736  11.159  12.935
    28G11  C0GL  737  10.774  11.024  12.921
    28G11  H01R  738  10.878  11.003  12.903
    28G11  C0GK  739  10.686  10.920  12.951
    28G11  C0GP  740  10.687  10.780  12.933
    28G11  C0E2  741  10.553  10.735  12.975
    28G11  C0E1  742  10.538  10.616  12.885
    28G11  C0DU  743  10.419  10.591  12.808
    28G11  C0DT  744  10.285  10.641  12.825
    28G11  C0E4  745  10.242  10.758  12.893
    28G11  C0E5  746  10.114  10.785  12.850
    28G11  C0DS  747  10.181  10.609  12.731
    28G11  C0DR  748  10.221  10.526  12.618
    28G11  C0DD  749  10.137  10.466  12.525
    28G11  C0DC  750  10.226  10.409  12.424
    28G11  C0DP  751  10.370  10.432  12.459
    28G11  C0DA  752  10.493  10.384  12.392
    28G11  C0D9  753  10.513  10.281  12.281
    28G11  C0CR  754  10.643  10.226  12.249
    28G11  C0C0  755  10.753  10.286  12.304
    28G11  C0BZ  756  10.885  10.247  12.280
    28G11  C0C1  757  10.995  10.316  12.324
    28G11  C0C7  758  11.124  10.266  12.310
    28G11  C0C6  759  11.236  10.332  12.361
    28G11  C0C9  760  11.358  10.273  12.349
    28G11  C0B8  761  11.470  10.344  12.395
    28G11  C0B7  762  11.599  10.287  12.392
    28G11  C0B6  763  11.732  10.341  12.430
    28G11  C0B5  764  11.771  10.476  12.447
    28G11  H00Z  765  11.714  10.568  12.450
    28G11  C0B4  766  11.914  10.477  12.408
    28G11  H010  767  11.981  10.560  12.391
    28G11  C0B3  768  11.956  10.347  12.381
    28G11  C0AP  769  12.048  10.249  12.317
    28G11  C0AQ  770  11.982  10.119  12.317
    28G11  C0AR  771  11.993  10.036  12.203
    28G11  C0AS  772  11.882   9.967  12.177
    28G11  C0AT  773  11.754   9.997  12.224
    28G11  C0BA  774  11.734  10.094  12.313
    28G11  C0AU  775  11.647   9.943  12.166
    28G11  C0BE  776  11.519   9.989  12.191
    28G11  C0BI  777  11.412   9.936  12.118
    28G11  C0BJ  778  11.434   9.832  12.023
    28G11  C0BK  779  11.326   9.772  11.964
    28G11  C0BW  780  11.196   9.821  11.979
    28G11  C0BV  781  11.175   9.931  12.064
    28G11  C0BU  782  11.049   9.983  12.089
    28G11  C0BX  783  11.031  10.085  12.180
    28G11  C0BT  784  10.944   9.936  12.012
    28G11  C0CD  785  10.819   9.990  12.032
    28G11  C0CB  786  10.793  10.085  12.126
    28G11  C0CE  787  10.712   9.942  11.958
    28G11  C0CK  788  10.735   9.840  11.859
    28G11  C0BS  789  10.863   9.779  11.847
    28G11  C0CJ  790  10.885   9.670  11.755
    28G11  C0BP  791  11.006   9.608  11.755
    28G11  C0CI  792  11.024   9.484  11.691
    28G11  C0CH  793  11.150   9.430  11.696
    28G11  H012  794  11.163   9.335  11.646
    28G11  C0BN  795  11.261   9.490  11.758
    28G11  C0CG  796  11.392   9.440  11.728
    28G11  C0CF  797  11.427   9.314  11.656
    28G11  H013  798  11.353   9.238  11.633
    28G11  O00G  799  11.551   9.291  11.611
    28G11  C0AA  800  11.646   9.387  11.627
    28G11  C0A9  801  11.765   9.365  11.558
    28G11  H00U  802  11.768   9.280  11.492
    28G11  C0A8  803  11.867   9.461  11.573
    28G11  H00V  804  11.959   9.445  11.519
    28G11  C0A7  805  11.860   9.562  11.670
    28G11  C0A6  806  11.737   9.587  11.732
    28G11  C0A5  807  11.711   9.677  11.833
    28G11  C0A4  808  11.814   9.747  11.897
    28G11  C0A3  809  11.958   9.775  11.877
    28G11  C0A2  810  12.027   9.748  11.757
    28G11  C0A1  811  12.166   9.779  11.744
    28G11  C0A0  812  12.259   9.874  11.809
    28G11  C09Z  813  12.391   9.864  11.759
    28G11  C09Y  814  12.492   9.952  11.800
    28G11  H00Y  815  12.595   9.942  11.767
    28G11  C09X  816  12.455  10.056  11.896
    28G11  C09W  817  12.556  10.144  11.939
    28G11  H00R  818  12.650  10.123  11.889
    28G11  C0AX  819  12.537  10.236  12.042
    28G11  H00S  820  12.616  10.306  12.066
    28G11  C0AW  821  12.411  10.243  12.098
    28G11  H00T  822  12.390  10.307  12.182
    28G11  C0AN  823  12.307  10.153  12.064
    28G11  C0AO  824  12.184  10.155  12.133
    28G11  C0AM  825  12.332  10.056  11.963
    28G11  C0B2  826  12.440   9.776  11.652
    28G11  O00D  827  12.553   9.778  11.601
    28G11  C0B1  828  12.350   9.678  11.609
    28G11  H00W  829  12.385   9.599  11.545
    28G11  C0AL  830  12.228   9.961  11.920
    28G11  C0AK  831  12.117   9.957  12.005
    28G11  C0B0  832  12.218   9.687  11.655
    28G11  C0AZ  833  12.116   9.601  11.605
    28G11  H00X  834  12.147   9.536  11.525
    28G11  C0AJ  835  12.003   9.873  11.977
    28G11  C0AH  836  11.786   9.813  12.016
    28G11  C0AE  837  11.579   9.703  11.883
    28G11  C0AD  838  11.475   9.632  11.837
    28G11  C0AY  839  11.989   9.633  11.677
    28G11  C0AB  840  11.628   9.506  11.704
    28G11  C0AC  841  11.500   9.523  11.758
    28G11  C0BM  842  11.240   9.605  11.822
    28G11  C0CM  843  10.918   9.444  11.605
    28G11  C09M  844  10.806   9.532  11.572
    28G11  C098  845  10.734   9.504  11.445
    28G11  C08R  846  10.601   9.529  11.407
    28G11  C08Q  847  10.561   9.490  11.278
    28G11  C08P  848  10.442   9.432  11.210
    28G11  C08Y  849  10.463   9.340  11.110
    28G11  C097  850  10.586   9.280  11.086
    28G11  C096  851  10.565   9.149  11.058
    28G11  C090  852  10.435   9.142  11.001
    28G11  C095  853  10.364   9.018  10.978
    28G11  C094  854  10.231   9.004  10.936
    28G11  C08J  855  10.124   9.104  10.936
    28G11  C08I  856  10.002   9.041  10.940
    28G11  C08H  857   9.903   9.128  10.999
    28G11  C08G  858   9.978   9.239  11.060
    28G11  C08F  859   9.947   9.357  11.135
    28G11  C08E  860   9.816   9.407  11.151
    28G11  C059  861   9.703   9.364  11.076
    28G11  C058  862   9.576   9.427  11.088
    28G11  C057  863   9.460   9.393  11.023
    28G11  C056  864   9.464   9.283  10.936
    28G11  C055  865   9.582   9.230  10.900
    28G11  C054  866   9.555   9.100  10.850
    28G11  C053  867   9.407   9.077  10.852
    28G11  C052  868   9.334   8.950  10.855
    28G11  C051  869   9.399   8.823  10.829
    28G11  C05U  870   9.542   8.807  10.825
    28G11  C05T  871   9.659   8.883  10.856
    28G11  C06K  872   9.772   8.815  10.802
    28G11  H00J  873   9.866   8.868  10.787
    28G11  C06L  874   9.726   8.689  10.760
    28G11  H00I  875   9.778   8.611  10.707
    28G11  C05V  876   9.587   8.685  10.778
    28G11  C06J  877   9.508   8.580  10.735
    28G11  H00K  878   9.546   8.493  10.684
    28G11  C05X  879   9.371   8.586  10.758
    28G11  C06I  880   9.286   8.472  10.740
    28G11  H00L  881   9.336   8.379  10.713
    28G11  C04Z  882   9.147   8.477  10.767
    28G11  C06H  883   9.068   8.361  10.741
    28G11  H00H  884   9.118   8.272  10.705
    28G11  C04Y  885   8.927   8.369  10.776
    28G11  C06G  886   8.842   8.250  10.764
    28G11  O009  887   8.887   8.139  10.724
    28G11  O008  888   8.711   8.262  10.800
    28G11  C04P  889   8.654   8.384  10.835
    28G11  C04J  890   8.520   8.402  10.879
    28G11  C04Q  891   8.426   8.302  10.898
    28G11  H00E  892   8.463   8.209  10.858
    28G11  C04M  893   8.297   8.315  10.948
    28G11  C04R  894   8.202   8.213  10.966
    28G11  H00F  895   8.224   8.110  10.939
    28G11  C04S  896   8.080   8.247  11.017
    28G11  H00G  897   8.014   8.162  11.026
    28G11  O007  898   8.052   8.367  11.068
    28G11  C03V  899   8.138   8.467  11.051
    28G11  C03U  900   8.109   8.587  11.105
    28G11  O006  901   7.984   8.600  11.166
    28G11  C03F  902   7.957   8.714  11.235
    28G11  C03E  903   8.044   8.825  11.224
    28G11  C03D  904   8.165   8.817  11.161
    28G11  C03C  905   8.250   8.925  11.160
    28G11  C03B  906   8.211   9.041  11.228
    28G11  C03A  907   8.290   9.152  11.230
    28G11  C039  908   8.424   9.154  11.176
    28G11  C038  909   8.479   9.277  11.222
    28G11  C037  910   8.372   9.341  11.289
    28G11  C036  911   8.375   9.474  11.328
    28G11  C02R  912   8.295   9.544  11.414
    28G11  C035  913   8.372   9.654  11.450
    28G11  C03R  914   8.496   9.651  11.392
    28G11  C03S  915   8.609   9.699  11.459
    28G11  C049  916   8.730   9.663  11.408
    28G11  C048  917   8.729   9.556  11.313
    28G11  C03P  918   8.613   9.479  11.269
    28G11  C047  919   8.863   9.528  11.268
    28G11  C046  920   8.906   9.432  11.178
    28G11  C045  921   8.836   9.334  11.118
    28G11  C03T  922   8.702   9.289  11.134
    28G11  C044  923   8.683   9.168  11.065
    28G11  C043  924   8.797   9.157  10.986
    28G11  C042  925   8.821   9.032  10.940
    28G11  C041  926   8.693   8.964  10.984
    28G11  C040  927   8.672   8.826  10.973
    28G11  C03Z  928   8.546   8.762  10.992
    28G11  C04H  929   8.570   8.633  10.942
    28G11  C04G  930   8.699   8.616  10.899
    28G11  C03N  931   8.412   8.790  11.042
    28G11  C03Y  932   8.325   8.679  11.042
    28G11  C03X  933   8.358   8.554  10.982
    28G11  C04F  934   8.767   8.730  10.920
    28G11  C04E  935   8.905   8.737  10.875
    28G11  C04O  936   8.959   8.609  10.835
    28G11  C04D  937   8.986   8.851  10.875
    28G11  C04V  938   9.122   8.835  10.855
    28G11  C04W  939   9.175   8.707  10.820
    28G11  C04C  940   8.956   8.985  10.897
    28G11  C04L  941   9.081   9.052  10.875
    28G11  C04U  942   9.107   9.187  10.907
    28G11  C05Q  943   9.236   9.244  10.931
    28G11  C05P  944   9.224   9.354  11.016
    28G11  C04T  945   9.096   9.366  11.057
    28G11  C04B  946   9.025   9.269  10.989
    28G11  C03M  947   8.597   9.053  11.053
    28G11  C04A  948   8.894   9.250  11.026
    28G11  C05H  949   9.040   9.449  11.150
    28G11  C05G  950   9.081   9.555  11.231
    28G11  C05F  951   9.216   9.599  11.222
    28G11  C05E  952   9.274   9.675  11.334
    28G11  C05L  953   9.221   9.754  11.445
    28G11  C05K  954   9.086   9.765  11.485
    28G11  C05J  955   8.970   9.706  11.417
    28G11  C066  956   9.061   9.847  11.601
    28G11  C065  957   9.172   9.902  11.672
    28G11  C064  958   9.306   9.881  11.632
    28G11  C06N  959   9.146   9.979  11.782
    28G11  C069  960   9.018  10.005  11.826
    28G11  C06P  961   8.993  10.073  11.944
    28G11  C06R  962   8.863  10.086  11.995
    28G11  C06B  963   8.755  10.029  11.925
    28G11  C06S  964   8.626  10.044  11.980
    28G11  C02G  965   8.517   9.993  11.914
    28G11  C02F  966   8.394   9.989  11.977
    28G11  C027  967   8.373  10.055  12.093
    28G11  C026  968   8.243  10.057  12.154
    28G11  C00E  969   8.223  10.117  12.276
    28G11  C00D  970   8.094  10.117  12.329
    28G11  C00C  971   8.080  10.178  12.449
    28G11  C00B  972   8.183  10.244  12.513
    28G11  C015  973   8.303  10.254  12.454
    28G11  C07F  974   8.405  10.321  12.519
    28G11  C07E  975   8.532  10.317  12.470
    28G11  C06W  976   8.554  10.250  12.343
    28G11  C06V  977   8.452  10.181  12.279
    28G11  C06X  978   8.682  10.243  12.287
    28G11  C07B  979   8.788  10.298  12.357
    28G11  C07C  980   8.766  10.369  12.478
    28G11  C0FU  981   8.877  10.413  12.546
    28G11  C0F7  982   8.854  10.488  12.663
    28G11  C0F6  983   8.960  10.537  12.732
    28G11  C0F8  984   8.934  10.599  12.853
    28G11  C0F9  985   9.046  10.634  12.932
    28G11  C0FA  986   9.020  10.691  13.058
    28G11  C0FZ  987   8.893  10.707  13.105
    28G11  C0G0  988   8.873  10.763  13.233
    28G11  C0GD  989   8.979  10.785  13.321
    28G11  C0FC  990   9.111  10.775  13.272
    28G11  C0GH  991   9.216  10.814  13.352
    28G11  C0EY  992   9.342  10.827  13.292
    28G11  C0EX  993   9.455  10.869  13.368
    28G11  C0EW  994   9.579  10.886  13.303
    28G11  C0FR  995   9.689  10.924  13.380
    28G11  H01D  996   9.787  10.931  13.333
    28G11  C0FS  997   9.680  10.944  13.525
    28G11  H01C  998   9.762  10.982  13.584
    28G11  C0GJ  999   9.556  10.937  13.581
    28G11  H01N 1000   9.551  10.951  13.688
    28G11  C0EV 1001   9.596  10.858  13.167
    28G11  C0FT 1002   9.717  10.890  13.099
    28G11  H01E 1003   9.796  10.947  13.145
    28G11  C0EU 1004   9.487  10.789  13.104
    28G11  C0ET 1005   9.505  10.735  12.979
    28G11  C0EI 1006   9.413  10.670  12.904
    28G11  C0F1 1007   9.284  10.672  12.955
    28G11  C0F0 1008   9.260  10.729  13.082
    28G11  C0EH 1009   9.447  10.603  12.780
    28G11  C0EG 1010   9.581  10.606  12.727
    28G11  C0EJ 1011   9.339  10.545  12.713
    28G11  C0F3 1012   9.208  10.561  12.760
    28G11  C0EK 1013   9.357  10.483  12.589
    28G11  C0EL 1014   9.491  10.475  12.533
    28G11  C0EM 1015   9.490  10.417  12.397
    28G11  C0EN 1016   9.371  10.369  12.345
    28G11  C07I 1017   9.395  10.314  12.219
    28G11  C074 1018   9.289  10.255  12.145
    28G11  C073 1019   9.325  10.173  12.038
    28G11  C072 1020   9.218  10.114  11.968
    28G11  C075 1021   9.163  10.267  12.196
    28G11  C076 1022   9.141  10.329  12.320
    28G11  C078 1023   9.017  10.335  12.375
    28G11  C07G 1024   9.064  10.205  12.128
    28G11  C070 1025   8.937  10.214  12.183
    28G11  C07Z 1026   9.526  10.306  12.188
    28G11  C077 1027   9.248  10.369  12.399
    28G11  C0EO 1028   9.243  10.434  12.520
    28G11  C0F4 1029   9.114  10.450  12.569
    28G11  C0EQ 1030   9.634  10.751  12.921
    28G11  C0FQ 1031   9.442  10.900  13.507
    28G11  C0GI 1032   9.307  10.883  13.560
    28G11  H01L 1033   9.283  10.896  13.665
    28G11  C0EZ 1034   9.360  10.789  13.160
    28G11  C0GG 1035   9.195  10.850  13.489
    28G11  C0GF 1036   9.070  10.849  13.541
    28G11  H01M 1037   9.050  10.871  13.645
    28G11  C0GE 1038   8.965  10.815  13.453
    28G11  H01K 1039   8.864  10.824  13.490
    28G11  O00J 1040   8.748  10.785  13.281
    28G11  C0GA 1041   8.640  10.756  13.203
    28G11  C0G9 1042   8.515  10.781  13.262
    28G11  H01H 1043   8.501  10.825  13.360
    28G11  C0G8 1044   8.401  10.733  13.191
    28G11  C0G7 1045   8.268  10.745  13.235
    28G11  H01I 1046   8.255  10.792  13.331
    28G11  O00I 1047   8.156  10.687  13.177
    28G11  C0G6 1048   8.177  10.620  13.062
    28G11  H01J 1049   8.088  10.587  13.010
    28G11  C02D 1050   8.303  10.608  13.002
    28G11  C02C 1051   8.326  10.529  12.886
    28G11  C017 1052   8.225  10.448  12.819
    28G11  C016 1053   8.256  10.377  12.699
    28G11  O001 1054   8.095  10.434  12.874
    28G11  C018 1055   8.005  10.339  12.827
    28G11  C009 1056   8.032  10.275  12.706
    28G11  C008 1057   7.942  10.185  12.643
    28G11  C007 1058   7.827  10.105  12.676
    28G11  C006 1059   7.747  10.127  12.783
    28G11  C005 1060   7.628  10.058  12.822
    28G11  C004 1061   7.569   9.944  12.751
    28G11  C003 1062   7.594   9.884  12.623
    28G11  C002 1063   7.518   9.764  12.591
    28G11  C00P 1064   7.537   9.702  12.465
    28G11  C00O 1065   7.473   9.582  12.426
    28G11  C00N 1066   7.495   9.517  12.307
    28G11  C010 1067   7.426   9.401  12.271
    28G11  C011 1068   7.456   9.325  12.154
    28G11  C01Q 1069   7.399   9.198  12.127
    28G11  C01U 1070   7.298   9.149  12.213
    28G11  C012 1071   7.254   9.235  12.320
    28G11  H000 1072   7.173   9.206  12.386
    28G11  C01V 1073   7.244   9.019  12.186
    28G11  H007 1074   7.166   8.984  12.252
    28G11  O005 1075   7.294   8.938  12.083
    28G11  C01W 1076   7.390   8.989  12.001
    28G11  C031 1077   7.437   8.905  11.896
    28G11  C032 1078   7.537   8.949  11.808
    28G11  H00A 1079   7.571   8.883  11.729
    28G11  C033 1080   7.580   9.082  11.821
    28G11  H00B 1081   7.662   9.103  11.753
    28G11  C01O 1082   7.537   9.170  11.931
    28G11  C01N 1083   7.579   9.299  11.945
    28G11  C01M 1084   7.659   9.371  11.840
    28G11  C01L 1085   7.751   9.347  11.718
    28G11  C01K 1086   7.832   9.459  11.712
    28G11  C01Y 1087   7.943   9.484  11.622
    28G11  C02I 1088   7.971   9.386  11.530
    28G11  C02N 1089   8.090   9.401  11.455
    28G11  C02M 1090   8.127   9.285  11.376
    28G11  C02L 1091   8.045   9.171  11.365
    28G11  C02K 1092   7.918   9.176  11.428
    28G11  C02U 1093   7.833   9.069  11.400
    28G11  C02V 1094   7.879   8.952  11.344
    28G11  C03H 1095   7.799   8.835  11.359
    28G11  H00C 1096   7.715   8.831  11.427
    28G11  C02W 1097   7.699   9.089  11.431
    28G11  C02X 1098   7.672   9.183  11.529
    28G11  C02Y 1099   7.528   9.178  11.545
    28G11  H008 1100   7.456   9.238  11.599
    28G11  C02Z 1101   7.482   9.065  11.456
    28G11  O004 1102   7.368   9.021  11.454
    28G11  O003 1103   7.588   9.018  11.393
    28G11  C02J 1104   7.885   9.276  11.521
    28G11  C01Z 1105   8.027   9.593  11.653
    28G11  C020 1106   7.993   9.680  11.756
    28G11  C01I 1107   7.882   9.659  11.836
    28G11  C01H 1108   7.861   9.713  11.959
    28G11  C00K 1109   7.762   9.674  12.043
    28G11  C01S 1110   7.687   9.562  12.009
    28G11  C014 1111   7.601   9.498  12.095
    28G11  C00J 1112   7.739   9.737  12.163
    28G11  C00I 1113   7.818   9.844  12.195
    28G11  C00H 1114   7.926   9.876  12.116
    28G11  C00G 1115   8.026   9.963  12.160
    28G11  C00S 1116   7.795   9.908  12.312
    28G11  C00T 1117   7.878  10.007  12.343
    28G11  C00U 1118   7.862  10.077  12.458
    28G11  C00R 1119   7.695   9.867  12.400
    28G11  C00L 1120   7.645   9.686  12.247
    28G11  C028 1121   7.949   9.815  11.996
    28G11  C023 1122   8.067   9.836  11.925
    28G11  C024 1123   8.167   9.916  11.971
    28G11  C021 1124   8.090   9.771  11.808
    28G11  C022 1125   8.209   9.779  11.740
    28G11  C02H 1126   8.313   9.857  11.793
    28G11  C030 1127   8.435   9.856  11.739
    28G11  C034 1128   8.459   9.786  11.624
    28G11  C02P 1129   8.227   9.708  11.625
    28G11  C02B 1130   8.140   9.612  11.579
    28G11  C01J 1131   7.795   9.558  11.799
    28G11  C01X 1132   7.761   9.264  11.597
    28G11  C01T 1133   7.704   9.501  11.885
    28G11  H009 1134   7.394   8.806  11.897
    28G11  C01P 1135   7.445   9.118  12.022
    28G11  C01R 1136   7.550   9.372  12.063
    28G11  C00Z 1137   7.324   9.353  12.355
    28G11  O000 1138   7.298   9.419  12.478
    28G11  C00M 1139   7.584   9.566  12.218
    28G11  C00Y 1140   7.378   9.528  12.512
    28G11  C013 1141   7.353   9.591  12.634
    28G11  H001 1142   7.278   9.549  12.700
    28G11  C00Q 1143   7.624   9.754  12.367
    28G11  C001 1144   7.424   9.706  12.679
    28G11  C000 1145   7.406   9.769  12.805
    28G11  H006 1146   7.339   9.722  12.876
    28G11  C00W 1147   7.689   9.921  12.529
    28G11  C01G 1148   7.473   9.889  12.836
    28G11  H005 1149   7.445   9.932  12.931
    28G11  C01C 1150   7.575  10.126  12.935
    28G11  H002 1151   7.485  10.108  12.993
    28G11  C01B 1152   7.672  10.217  12.980
    28G11  C01D 1153   7.682  10.291  13.101
    28G11  H003 1154   7.615  10.276  13.185
    28G11  C01E 1155   7.787  10.367  13.121
    28G11  H004 1156   7.804  10.414  13.217
    28G11  O002 1157   7.886  10.393  13.027
    28G11  C01A 1158   7.774  10.232  12.881
    28G11  C00V 1159   7.789  10.026  12.563
    28G11  C019 1160   7.886  10.323  12.905
    28G11  C02E 1161   8.454  10.525  12.825
    28G11  C0FX 1162   8.565  10.581  12.889
    28G11  C0FW 1163   8.693  10.571  12.831
    28G11  C0GB 1164   8.547  10.643  13.007
    28G11  C0G3 1165   8.480  10.454  12.704
    28G11  C07H 1166   8.608  10.450  12.645
    28G11  C0GC 1167   8.417  10.662  13.068
    28G11  C0G2 1168   8.656  10.698  13.070
    28G11  C0G1 1169   8.786  10.676  13.025
    28G11  C0FB 1170   9.132  10.732  13.137
    28G11  C0F2 1171   9.178  10.621  12.884
    28G11  C0FY 1172   8.804  10.617  12.903
    28G11  C0F5 1173   9.094  10.517  12.688
    28G11  C0FV 1174   8.716  10.505  12.712
    28G11  C079 1175   9.005  10.403  12.493
    28G11  C07A 1176   8.915  10.278  12.308
    28G11  C06Y 1177   8.707  10.171  12.167
    28G11  C07D 1178   8.640  10.384  12.528
    28G11  C01F 1179   8.379  10.389  12.636
    28G11  C00A 1180   8.153  10.300  12.633
    28G11  C00X 1181   7.960  10.163  12.510
    28G11  C00F 1182   8.000  10.033  12.277
    28G11  C029 1183   8.326  10.185  12.336
    28G11  C025 1184   8.146   9.980  12.092
    28G11  C06U 1185   8.475  10.119  12.157
    28G11  C02A 1186   8.295   9.922  11.911
    28G11  C05Y 1187   8.541   9.922  11.797
    28G11  C05Z 1188   8.673   9.898  11.749
    28G11  C060 1189   8.695   9.825  11.632
    28G11  C062 1190   8.824   9.803  11.580
    28G11  C06T 1191   8.603  10.112  12.099
    28G11  C06A 1192   8.782   9.961  11.811
    28G11  C06Z 1193   8.833  10.157  12.114
    28G11  C06Q 1194   9.090  10.134  12.014
    28G11  C068 1195   8.911   9.951  11.758
    28G11  C067 1196   8.930   9.869  11.647
    28G11  C063 1197   9.334   9.806  11.520
    28G11  C06C 1198   9.467   9.786  11.493
    28G11  C06D 1199   9.512   9.701  11.394
    28G11  C06E 1200   9.644   9.663  11.359
    28G11  C07Q 1201   9.740   9.715  11.435
    28G11  C07P 1202   9.708   9.806  11.542
    28G11  C07T 1203   9.812   9.855  11.615
    28G11  C07U 1204   9.781   9.939  11.717
    28G11  C07V 1205   9.883   9.996  11.788
    28G11  C084 1206  10.012   9.956  11.763
    28G11  C08C 1207  10.040   9.858  11.673
    28G11  C08B 1208  10.168   9.817  11.654
    28G11  C08A 1209  10.191   9.721  11.559
    28G11  C089 1210  10.100   9.666  11.472
    28G11  C088 1211  10.133   9.571  11.373
    28G11  C087 1212  10.033   9.522  11.298
    28G11  C086 1213   9.902   9.569  11.317
    28G11  C08X 1214  10.265   9.531  11.356
    28G11  C08T 1215  10.360   9.578  11.458
    28G11  C08D 1216   9.970   9.719  11.487
    28G11  C08U 1217  10.316   9.669  11.555
    28G11  C08V 1218  10.419   9.718  11.630
    28G11  C0CY 1219  10.405   9.819  11.720
    28G11  C0CX 1220  10.511   9.856  11.798
    28G11  C0CW 1221  10.485   9.949  11.896
    28G11  C0CV 1222  10.357   9.996  11.914
    28G11  C0D4 1223  10.248   9.951  11.827
    28G11  C0CU 1224  10.335  10.089  12.014
    28G11  C0CT 1225  10.433  10.139  12.099
    28G11  C0CS 1226  10.562  10.094  12.077
    28G11  C0D6 1227  10.203  10.132  12.020
    28G11  C0EC 1228  10.096  10.088  11.941
    28G11  C07X 1229   9.966  10.130  11.961
    28G11  C0DL 1230  10.176  10.216  12.126
    28G11  C0DK 1231  10.046  10.254  12.150
    28G11  C0DN 1232  10.048  10.319  12.268
    28G11  C0D8 1233  10.270  10.251  12.227
    28G11  C08W 1234  10.532   9.644  11.610
    28G11  C0CQ 1235  10.653   9.697  11.679
    28G11  C093 1236  10.274   9.861  11.729
    28G11  C092 1237  10.117   9.997  11.841
    28G11  C085 1238   9.939   9.807  11.593
    28G11  C07S 1239   9.874   9.673  11.407
    28G11  C06F 1240   9.675   9.569  11.256
    28G11  C07O 1241   9.573   9.841  11.569
    28G11  C07N 1242   9.546   9.919  11.676
    28G11  C05D 1243   9.409   9.653  11.313
    28G11  C05C 1244   9.445   9.573  11.210
    28G11  C05N 1245   9.325   9.534  11.150
    28G11  C05M 1246   8.977   9.607  11.310
    28G11  C05I 1247   8.842   9.728  11.466
    28G11  C061 1248   8.588   9.774  11.571
    28G11  C02Q 1249   8.350   9.723  11.570
    28G11  C02O 1250   8.173   9.517  11.479
    28G11  C03Q 1251   8.496   9.537  11.313
    28G11  C03O 1252   8.603   9.350  11.206
    28G11  C03L 1253   8.468   9.036  11.107
    28G11  C02S 1254   8.256   9.267  11.308
    28G11  C02T 1255   8.084   9.051  11.294
    28G11  C03K 1256   8.376   8.918  11.097
    28G11  C03I 1257   8.002   8.942  11.286
    28G11  C03G 1258   7.841   8.712  11.308
    28G11  H00D 1259   7.784   8.621  11.320
    28G11  C03J 1260   8.201   8.696  11.103
    28G11  C03W 1261   8.262   8.449  10.985
    28G11  C04I 1262   8.479   8.525  10.935
    28G11  C04K 1263   8.739   8.493  10.852
    28G11  C04N 1264   8.876   8.492  10.822
    28G11  C04X 1265   9.094   8.597  10.810
    28G11  C050 1266   9.315   8.705  10.800
    28G11  C05W 1267   9.191   8.954  10.855
    28G11  C05S 1268   9.670   9.031  10.889
    28G11  C05R 1269   9.357   9.208  10.890
    28G11  C05O 1270   9.330   9.430  11.065
    28G11  C05B 1271   9.571   9.525  11.183
    28G11  C05A 1272   9.690   9.248  10.989
    28G11  C07R 1273   9.800   9.512  11.243
    28G11  C08N 1274  10.062   9.423  11.197
    28G11  C08M 1275  10.195   9.391  11.173
    28G11  C08L 1276  10.226   9.293  11.076
    28G11  C091 1277   9.763   9.122  10.968
    28G11  C09K 1278  10.033   8.908  11.002
    28G11  H00M 1279   9.968   8.842  11.057
    28G11  C08K 1280  10.117   9.219  11.018
    28G11  C09J 1281  10.173   8.885  10.978
    28G11  C09I 1282  10.281   8.801  11.017
    28G11  C09L 1283  10.294   8.662  11.053
    28G11  H00N 1284  10.206   8.599  11.055
    28G11  C09Q 1285  10.418   8.618  11.080
    28G11  H00O 1286  10.426   8.522  11.129
    28G11  O00B 1287  10.533   8.697  11.080
    28G11  C09G 1288  10.529   8.830  11.055
    28G11  C09F 1289  10.648   8.897  11.080
    28G11  O00A 1290  10.745   8.810  11.121
    28G11  C09P 1291  10.855   8.864  11.177
    28G11  H00P 1292  10.954   8.826  11.152
    28G11  C09O 1293  10.840   8.982  11.258
    28G11  C09D 1294  10.760   9.087  11.194
    28G11  C09C 1295  10.765   9.225  11.224
    28G11  C09N 1296  10.831   9.300  11.334
    28G11  C09T 1297  10.889   9.236  11.450
    28G11  C09S 1298  10.895   9.095  11.468
    28G11  C0CP 1299  10.926   9.089  11.608
    28G11  C0CN 1300  10.940   9.210  11.674
    28G11  C0CO 1301  10.951   9.215  11.816
    28G11  H014 1302  10.958   9.309  11.869
    28G11  C0CZ 1303  10.939   9.091  11.876
    28G11  H015 1304  10.946   9.081  11.983
    28G11  C0D0 1305  10.921   8.968  11.815
    28G11  C0G5 1306  10.893   8.846  11.888
    28G11  H01F 1307  10.886   8.840  11.995
    28G11  C0G4 1308  10.870   8.737  11.818
    28G11  H01G 1309  10.840   8.652  11.877
    28G11  O00H 1310  10.868   8.727  11.675
    28G11  C0D2 1311  10.897   8.842  11.606
    28G11  C09V 1312  10.883   8.854  11.469
    28G11  H00Q 1313  10.864   8.761  11.418
    28G11  C0D1 1314  10.921   8.962  11.674
    28G11  C09R 1315  10.874   8.976  11.396
    28G11  C09H 1316  10.404   8.881  11.012
    28G11  C09E 1317  10.660   9.042  11.100
    28G11  C09B 1318  10.692   9.318  11.160
    28G11  C08Z 1319  10.365   9.258  11.062
    28G11  C08O 1320  10.304   9.445  11.250
    28G11  C09A 1321  10.687   9.442  11.224
    28G11  C08S 1322  10.499   9.564  11.501
    28G11  C099 1323  10.787   9.435  11.329
    28G11  C09U 1324  10.919   9.307  11.573
    28G11  C0BO 1325  11.111   9.662  11.825
    28G11  C0CL 1326  10.779   9.630  11.670
    28G11  C0D3 1327  10.634   9.801  11.777
    28G11  C0D5 1328  10.590   9.995  11.976
    28G11  C0BR 1329  10.969   9.834  11.920
    28G11  C0BQ 1330  11.094   9.775  11.904
    28G11  C0BL 1331  11.348   9.671  11.876
    28G11  C0AF 1332  11.558   9.795  11.990
    28G11  C0BH 1333  11.282   9.985  12.138
    28G11  C0BG 1334  11.264  10.093  12.224
    28G11  C0BD 1335  11.500  10.101  12.271
    28G11  C0AG 1336  11.661   9.851  12.059
    28G11  C0AI 1337  11.897   9.884  12.063
    28G11  C0AV 1338  12.101  10.044  12.115
    28G11  C0BB 1339  11.851  10.156  12.363
    28G11  O00C 1340  12.155  10.258  12.227
    28G11  C0BC 1341  11.853  10.270  12.434
    28G11  C0B9 1342  11.610  10.155  12.333
    28G11  O00E 1343  11.455  10.467  12.451
    28G11  C0CA 1344  11.337  10.536  12.461
    28G11  O00F 1345  11.336  10.654  12.483
    28G11  C0BF 1346  11.373  10.161  12.278
    28G11  C0C5 1347  11.221  10.458  12.423
    28G11  C0C4 1348  11.093  10.511  12.440
    28G11  H011 1349  11.081  10.606  12.490
    28G11  C0C8 1350  11.141  10.148  12.240
    28G11  C0C2 1351  10.982  10.437  12.397
    28G11  C0C3 1352  10.842  10.469  12.435
    28G11  C0DY 1353  10.801  10.559  12.526
    28G11  H016 1354  10.853  10.634  12.583
    28G11  C0DX 1355  10.656  10.549  12.534
    28G11  C0DW 1356  10.598  10.561  12.663
    28G11  C0BY 1357  10.901  10.135  12.198
    28G11  C0DB 1358  10.736  10.392  12.390
    28G11  C0CC 1359  10.664  10.132  12.156
    28G11  C0D7 1360  10.409  10.229  12.203
    28G11  C0DZ 1361  10.617  10.442  12.439
    28G11  C0DM 1362  10.185  10.321  12.322
    28G11  C0DQ 1363  10.360  10.498  12.587
    28G11  C0DV 1364  10.458  10.547  12.681
    28G11  C0E0 1365  10.647  10.596  12.799
    28G11  C0FO 1366  10.465  10.846  12.986
    28G11  C0E3 1367  10.732  10.713  12.819
    28G11  H017 1368  10.789  10.751  12.735
    28G11  C0GV 1369  10.552  10.954  12.988
    28G11  C0ES 1370  10.328  10.859  12.950
    28G11  C0GQ 1371  10.313  11.232  12.960
    28G11  C0FJ 1372   9.959  11.183  12.908
    28G11  C0ED 1373  10.054  10.914  12.881
    28G11  C0ER 1374   9.733  10.832  12.976
    28G11  C0EP 1375   9.669  10.689  12.803
    28G11  C0E6 1376  10.061  10.680  12.763
    28G11  C0DE 1377   9.986  10.482  12.527
    28G11  C0EA 1378   9.608  10.529  12.610
    28G11  C0DF 1379   9.906  10.398  12.447
    28G11  C080 1380   9.589  10.371  12.300
    28G11  C0DO 1381   9.929  10.361  12.315
    28G11  C0DJ 1382   9.937  10.219  12.066
    28G11  C07K 1383   9.563  10.224  12.075
    28G11  C07W 1384   9.855  10.087  11.891
    28G11  C083 1385   9.649   9.970  11.753
    28G11  C07J 1386   9.461  10.165  12.002
    28G11  C06O 1387   9.248  10.036  11.857
    28G11  C06M 1388   9.412   9.940  11.713
    38G11  C071 1389   6.221   2.986  10.831
    38G11  C07L 1390   6.176   3.113  10.780
    38G11  C07M 1391   6.105   3.202  10.856
    38G11  C07Y 1392   6.068   3.326  10.806
    38G11  C081 1393   6.103   3.363  10.675
    38G11  C082 1394   6.084   3.498  10.639
    38G11  C0DI 1395   6.123   3.573  10.515
    38G11  C0DH 1396   6.171   3.526  10.392
    38G11  C0DG 1397   6.208   3.642  10.309
    38G11  C0E9 1398   6.188   3.656  10.168
    38G11  C0E8 1399   6.109   3.787  10.149
    38G11  C0E7 1400   6.045   3.833  10.026
    38G11  C0EB 1401   6.092   3.784   9.897
    38G11  C0EF 1402   6.052   3.816   9.761
    38G11  C0EE 1403   5.927   3.852   9.705
    38G11  C0FD 1404   5.890   3.800   9.577
    38G11  C0FE 1405   5.950   3.683   9.515
    38G11  H01B 1406   6.041   3.642   9.555
    38G11  C0FF 1407   5.902   3.632   9.394
    38G11  H01A 1408   5.936   3.550   9.333
    38G11  C0FG 1409   5.784   3.681   9.345
    38G11  H018 1410   5.732   3.631   9.265
    38G11  C0FH 1411   5.729   3.798   9.394
    38G11  C0FI 1412   5.612   3.862   9.341
    38G11  H019 1413   5.555   3.821   9.258
    38G11  O00K 1414   5.558   3.973   9.396
    38G11  C0FL 1415   5.593   4.010   9.517
    38G11  C0FK 1416   5.709   3.954   9.582
    38G11  C0FM 1417   5.752   4.013   9.699
    38G11  C0FN 1418   5.681   4.124   9.748
    38G11  C0FP 1419   5.556   4.159   9.691
    38G11  C0GO 1420   5.477   4.258   9.748
    38G11  C0GN 1421   5.347   4.288   9.711
    38G11  C0GR 1422   5.297   4.211   9.602
    38G11  C0GS 1423   5.160   4.211   9.572
    38G11  H01Q 1424   5.118   4.168   9.482
    38G11  C0GT 1425   5.075   4.282   9.652
    38G11  H01O 1426   4.969   4.271   9.633
    38G11  C0GU 1427   5.124   4.365   9.755
    38G11  H01P 1428   5.054   4.421   9.816
    38G11  O00L 1429   5.381   4.139   9.524
    38G11  C0GM 1430   5.262   4.367   9.791
    38G11  C0GL 1431   5.325   4.443   9.894
    38G11  H01R 1432   5.276   4.523   9.947
    38G11  C0GK 1433   5.464   4.427   9.922
    38G11  C0GP 1434   5.557   4.479  10.017
    38G11  C0E2 1435   5.689   4.423   9.979
    38G11  C0E1 1436   5.773   4.404  10.091
    38G11  C0DU 1437   5.827   4.276  10.132
    38G11  C0DT 1438   5.865   4.165  10.058
    38G11  C0E4 1439   5.832   4.128   9.930
    38G11  C0E5 1440   5.893   4.011   9.900
    38G11  C0DS 1441   5.937   4.057  10.119
    38G11  C0DR 1442   5.952   4.067  10.262
    38G11  C0DD 1443   6.005   3.961  10.337
    38G11  C0DC 1444   5.975   4.008  10.480
    38G11  C0DP 1445   5.901   4.138  10.485
    38G11  C0DA 1446   5.850   4.209  10.606
    38G11  C0D9 1447   5.847   4.172  10.751
    38G11  C0CR 1448   5.797   4.259  10.847
    38G11  C0C0 1449   5.756   4.390  10.817
    38G11  C0BZ 1450   5.709   4.485  10.909
    38G11  C0C1 1451   5.670   4.614  10.862
    38G11  C0C7 1452   5.643   4.716  10.955
    38G11  C0C6 1453   5.605   4.840  10.913
    38G11  C0C9 1454   5.584   4.941  11.008
    38G11  C0B8 1455   5.567   5.072  10.962
    38G11  C0B7 1456   5.580   5.178  11.054
    38G11  C0B6 1457   5.592   5.319  11.027
    38G11  C0B5 1458   5.692   5.370  10.939
    38G11  H00Z 1459   5.746   5.310  10.867
    38G11  C0B4 1460   5.739   5.497  11.001
    38G11  H010 1461   5.830   5.551  10.981
    38G11  C0B3 1462   5.656   5.528  11.120
    38G11  C0AP 1463   5.683   5.573  11.253
    38G11  C0AQ 1464   5.615   5.481  11.331
    38G11  C0AR 1465   5.655   5.449  11.463
    38G11  C0AS 1466   5.631   5.323  11.500
    38G11  C0AT 1467   5.591   5.216  11.418
    38G11  C0BA 1468   5.558   5.243  11.290
    38G11  C0AU 1469   5.605   5.089  11.462
    38G11  C0BE 1470   5.605   4.987  11.372
    38G11  C0BI 1471   5.628   4.855  11.415
    38G11  C0BJ 1472   5.656   4.827  11.549
    38G11  C0BK 1473   5.690   4.699  11.590
    38G11  C0BW 1474   5.696   4.594  11.498
    38G11  C0BV 1475   5.674   4.623  11.366
    38G11  C0BU 1476   5.685   4.524  11.269
    38G11  C0BX 1477   5.686   4.556  11.132
    38G11  C0BT 1478   5.713   4.393  11.310
    38G11  C0CD 1479   5.738   4.293  11.216
    38G11  C0CB 1480   5.750   4.329  11.080
    38G11  C0CE 1481   5.755   4.161  11.264
    38G11  C0CK 1482   5.742   4.130  11.397
    38G11  C0BS 1483   5.736   4.232  11.493
    38G11  C0CJ 1484   5.741   4.204  11.630
    38G11  C0BP 1485   5.736   4.308  11.723
    38G11  C0CI 1486   5.737   4.283  11.860
    38G11  C0CH 1487   5.739   4.391  11.953
    38G11  H012 1488   5.740   4.370  12.059
    38G11  C0BN 1489   5.751   4.525  11.903
    38G11  C0CG 1490   5.782   4.633  11.990
    38G11  C0CF 1491   5.824   4.610  12.125
    38G11  H013 1492   5.842   4.508  12.156
    38G11  O00G 1493   5.863   4.711  12.212
    38G11  C0AA 1494   5.856   4.838  12.163
    38G11  C0A9 1495   5.909   4.941  12.239
    38G11  H00U 1496   5.943   4.926  12.340
    38G11  C0A8 1497   5.917   5.071  12.194
    38G11  H00V 1498   5.968   5.144  12.255
    38G11  C0A7 1499   5.855   5.109  12.071
    38G11  C0A6 1500   5.809   5.005  11.982
    38G11  C0A5 1501   5.761   5.020  11.853
    38G11  C0A4 1502   5.739   5.157  11.797
    38G11  C0A3 1503   5.772   5.293  11.825
    38G11  C0A2 1504   5.853   5.332  11.930
    38G11  C0A1 1505   5.882   5.471  11.956
    38G11  C0A0 1506   5.881   5.597  11.879
    38G11  C09Z 1507   5.916   5.710  11.952
    38G11  C09Y 1508   5.917   5.837  11.886
    38G11  H00Y 1509   5.949   5.925  11.939
    38G11  C09X 1510   5.910   5.844  11.745
    38G11  C09W 1511   5.948   5.964  11.685
    38G11  H00R 1512   5.984   6.042  11.750
    38G11  C0AX 1513   5.952   5.976  11.547
    38G11  H00S 1514   5.987   6.067  11.501
    38G11  C0AW 1515   5.907   5.870  11.472
    38G11  H00T 1516   5.901   5.888  11.365
    38G11  C0AN 1517   5.852   5.752  11.531
    38G11  C0AO 1518   5.787   5.652  11.460
    38G11  C0AM 1519   5.872   5.730  11.670
    38G11  C0B2 1520   5.951   5.719  12.089
    38G11  O00D 1521   5.979   5.820  12.149
    38G11  C0B1 1522   5.961   5.591  12.156
    38G11  H00W 1523   5.999   5.594  12.257
    38G11  C0AL 1524   5.844   5.608  11.739
    38G11  C0AK 1525   5.779   5.506  11.663
    38G11  C0B0 1526   5.918   5.474  12.094
    38G11  C0AZ 1527   5.916   5.345  12.148
    38G11  H00X 1528   5.949   5.339  12.250
    38G11  C0AJ 1529   5.742   5.376  11.715
    38G11  C0AH 1530   5.656   5.164  11.680
    38G11  C0AE 1531   5.727   4.916  11.770
    38G11  C0AD 1532   5.745   4.786  11.812
    38G11  C0AY 1533   5.871   5.252  12.048
    38G11  C0AB 1534   5.811   4.869  12.031
    38G11  C0AC 1535   5.772   4.764  11.947
    38G11  C0BM 1536   5.734   4.544  11.768
    38G11  C0CM 1537   5.724   4.146  11.903
    38G11  C09M 1538   5.770   4.041  11.819
    38G11  C098 1539   5.843   3.935  11.879
    38G11  C08R 1540   5.882   3.803  11.840
    38G11  C08Q 1541   5.958   3.728  11.936
    38G11  C08P 1542   5.960   3.586  11.964
    38G11  C08Y 1543   5.975   3.553  12.102
    38G11  C097 1544   5.954   3.645  12.207
    38G11  C096 1545   5.885   3.587  12.310
    38G11  C090 1546   5.921   3.445  12.298
    38G11  C095 1547   5.865   3.345  12.375
    38G11  C094 1548   5.897   3.211  12.359
    38G11  C08J 1549   5.970   3.140  12.258
    38G11  C08I 1550   5.913   3.009  12.257
    38G11  C08H 1551   5.929   2.957  12.125
    38G11  C08G 1552   5.937   3.062  12.031
    38G11  C08F 1553   5.939   3.088  11.889
    38G11  C08E 1554   5.943   2.977  11.801
    38G11  C059 1555   5.961   2.834  11.841
    38G11  C058 1556   5.998   2.740  11.742
    38G11  C057 1557   6.055   2.612  11.767
    38G11  C056 1558   6.057   2.569  11.899
    38G11  C055 1559   5.985   2.631  11.997
    38G11  C054 1560   6.051   2.610  12.120
    38G11  C053 1561   6.170   2.527  12.099
    38G11  C052 1562   6.284   2.499  12.181
    38G11  C051 1563   6.300   2.565  12.314
    38G11  C05U 1564   6.209   2.663  12.380
    38G11  C05T 1565   6.093   2.733  12.330
    38G11  C06K 1566   6.039   2.797  12.451
    38G11  H00J 1567   5.945   2.847  12.436
    38G11  C06L 1568   6.119   2.778  12.563
    38G11  H00I 1569   6.087   2.808  12.662
    38G11  C05V 1570   6.223   2.687  12.518
    38G11  C06J 1571   6.331   2.647  12.591
    38G11  H00K 1572   6.339   2.680  12.694
    38G11  C05X 1573   6.436   2.583  12.526
    38G11  C06I 1574   6.564   2.569  12.583
    38G11  H00L 1575   6.576   2.614  12.681
    38G11  C04Z 1576   6.676   2.508  12.516
    38G11  C06H 1577   6.808   2.513  12.576
    38G11  H00H 1578   6.825   2.573  12.664
    38G11  C04Y 1579   6.913   2.457  12.507
    38G11  C06G 1580   7.042   2.489  12.546
    38G11  O009 1581   7.074   2.562  12.635
    38G11  O008 1582   7.145   2.420  12.487
    38G11  C04P 1583   7.128   2.346  12.372
    38G11  C04J 1584   7.236   2.302  12.287
    38G11  C04Q 1585   7.373   2.315  12.309
    38G11  H00E 1586   7.409   2.356  12.403
    38G11  C04M 1587   7.475   2.265  12.225
    38G11  C04R 1588   7.614   2.277  12.242
    38G11  H00F 1589   7.661   2.335  12.320
    38G11  C04S 1590   7.698   2.222  12.153
    38G11  H00G 1591   7.802   2.248  12.163
    38G11  O007 1592   7.657   2.131  12.057
    38G11  C03V 1593   7.522   2.120  12.041
    38G11  C03U 1594   7.475   2.051  11.934
    38G11  O006 1595   7.563   1.968  11.873
    38G11  C03F 1596   7.537   1.916  11.753
    38G11  C03E 1597   7.411   1.930  11.692
    38G11  C03D 1598   7.311   1.997  11.768
    38G11  C03C 1599   7.183   2.001  11.716
    38G11  C03B 1600   7.171   1.964  11.583
    38G11  C03A 1601   7.046   1.980  11.518
    38G11  C039 1602   6.940   2.036  11.587
    38G11  C038 1603   6.840   2.054  11.488
    38G11  C037 1604   6.897   1.994  11.371
    38G11  C036 1605   6.832   1.987  11.254
    38G11  C02R 1606   6.880   1.958  11.132
    38G11  C035 1607   6.785   2.019  11.044
    38G11  C03R 1608   6.688   2.089  11.115
    38G11  C03S 1609   6.631   2.203  11.067
    38G11  C049 1610   6.560   2.277  11.155
    38G11  C048 1611   6.571   2.241  11.293
    38G11  C03P 1612   6.653   2.136  11.347
    38G11  C047 1613   6.476   2.307  11.365
    38G11  C046 1614   6.452   2.288  11.502
    38G11  C045 1615   6.529   2.222  11.600
    38G11  C03T 1616   6.650   2.151  11.592
    38G11  C044 1617   6.692   2.122  11.724
    38G11  C043 1618   6.588   2.158  11.813
    38G11  C042 1619   6.639   2.207  11.930
    38G11  C041 1620   6.778   2.157  11.922
    38G11  C040 1621   6.873   2.156  12.031
    38G11  C03Z 1622   7.013   2.144  12.019
    38G11  C04H 1623   7.069   2.204  12.138
    38G11  C04G 1624   6.966   2.257  12.213
    38G11  C03N 1625   7.114   2.111  11.922
    38G11  C03Y 1626   7.250   2.119  11.965
    38G11  C03X 1627   7.293   2.175  12.085
    38G11  C04F 1628   6.843   2.231  12.156
    38G11  C04E 1629   6.738   2.301  12.214
    38G11  C04O 1630   6.756   2.372  12.338
    38G11  C04D 1631   6.605   2.309  12.158
    38G11  C04V 1632   6.506   2.403  12.214
    38G11  C04W 1633   6.525   2.464  12.340
    38G11  C04C 1634   6.552   2.257  12.036
    38G11  C04L 1635   6.412   2.318  12.026
    38G11  C04U 1636   6.336   2.318  11.904
    38G11  C05Q 1637   6.227   2.403  11.876
    38G11  C05P 1638   6.208   2.425  11.738
    38G11  C04T 1639   6.309   2.361  11.677
    38G11  C04B 1640   6.385   2.294  11.778
    38G11  C03M 1641   6.820   2.111  11.788
    38G11  C04A 1642   6.498   2.228  11.732
    38G11  C05H 1643   6.340   2.363  11.538
    38G11  C05G 1644   6.293   2.439  11.418
    38G11  C05F 1645   6.181   2.528  11.418
    38G11  C05E 1646   6.168   2.626  11.320
    38G11  C05L 1647   6.228   2.658  11.186
    38G11  C05K 1648   6.319   2.569  11.116
    38G11  C05J 1649   6.389   2.453  11.172
    38G11  C066 1650   6.352   2.613  10.988
    38G11  C065 1651   6.305   2.735  10.938
    38G11  C064 1652   6.222   2.820  11.011
    38G11  C06N 1653   6.341   2.772  10.807
    38G11  C069 1654   6.434   2.698  10.733
    38G11  C06P 1655   6.472   2.744  10.605
    38G11  C06R 1656   6.578   2.677  10.540
    38G11  C06B 1657   6.632   2.561  10.587
    38G11  C06S 1658   6.728   2.489  10.516
    38G11  C02G 1659   6.776   2.370  10.570
    38G11  C02F 1660   6.874   2.309  10.494
    38G11  C027 1661   6.919   2.354  10.371
    38G11  C026 1662   7.020   2.290  10.303
    38G11  C00E 1663   7.066   2.346  10.181
    38G11  C00D 1664   7.171   2.280  10.115
    38G11  C00C 1665   7.220   2.342  10.006
    38G11  C00B 1666   7.175   2.460   9.949
    38G11  C015 1667   7.071   2.520  10.020
    38G11  C07F 1668   7.021   2.640   9.971
    38G11  C07E 1669   6.907   2.693  10.032
    38G11  C06W 1670   6.858   2.639  10.148
    38G11  C06V 1671   6.911   2.518  10.199
    38G11  C06X 1672   6.757   2.702  10.217
    38G11  C07B 1673   6.705   2.822  10.170
    38G11  C07C 1674   6.753   2.873  10.049
    38G11  C0FU 1675   6.699   2.991  10.000
    38G11  C0F7 1676   6.745   3.047   9.881
    38G11  C0F6 1677   6.692   3.162   9.833
    38G11  C0F8 1678   6.737   3.213   9.715
    38G11  C0F9 1679   6.676   3.322   9.657
    38G11  C0FA 1680   6.728   3.375   9.538
    38G11  C0FZ 1681   6.834   3.315   9.478
    38G11  C0G0 1682   6.889   3.371   9.360
    38G11  C0GD 1683   6.820   3.477   9.296
    38G11  C0FC 1684   6.710   3.535   9.358
    38G11  C0GH 1685   6.643   3.647   9.298
    38G11  C0EY 1686   6.539   3.708   9.359
    38G11  C0EX 1687   6.474   3.824   9.301
    38G11  C0EW 1688   6.366   3.884   9.370
    38G11  C0FR 1689   6.296   3.996   9.309
    38G11  H01D 1690   6.211   4.038   9.360
    38G11  C0FS 1691   6.358   4.055   9.198
    38G11  H01C 1692   6.314   4.148   9.165
    38G11  C0GJ 1693   6.458   3.996   9.129
    38G11  H01N 1694   6.508   4.040   9.044
    38G11  C0EV 1695   6.322   3.830   9.488
    38G11  C0FT 1696   6.201   3.871   9.547
    38G11  H01E 1697   6.131   3.937   9.498
    38G11  C0EU 1698   6.395   3.727   9.547
    38G11  C0ET 1699   6.360   3.677   9.670
    38G11  C0EI 1700   6.416   3.574   9.738
    38G11  C0F1 1701   6.518   3.507   9.673
    38G11  C0F0 1702   6.563   3.555   9.545
    38G11  C0EH 1703   6.381   3.531   9.871
    38G11  C0EG 1704   6.283   3.606   9.948
    38G11  C0EJ 1705   6.435   3.412   9.919
    38G11  C0F3 1706   6.537   3.347   9.855
    38G11  C0EK 1707   6.383   3.355  10.038
    38G11  C0EL 1708   6.284   3.432  10.118
    38G11  C0EM 1709   6.246   3.357  10.236
    38G11  C0EN 1710   6.291   3.230  10.262
    38G11  C07I 1711   6.255   3.190  10.386
    38G11  C074 1712   6.320   3.082  10.451
    38G11  C073 1713   6.283   3.051  10.580
    38G11  C072 1714   6.336   2.937  10.632
    38G11  C075 1715   6.417   3.016  10.381
    38G11  C076 1716   6.452   3.061  10.255
    38G11  C078 1717   6.554   3.002  10.188
    38G11  C07G 1718   6.479   2.909  10.436
    38G11  C070 1719   6.568   2.839  10.365
    38G11  C07Z 1720   6.188   3.286  10.455
    38G11  C077 1721   6.394   3.172  10.200
    38G11  C0EO 1722   6.436   3.231  10.081
    38G11  C0F4 1723   6.542   3.172  10.016
    38G11  C0EQ 1724   6.249   3.731   9.739
    38G11  C0FQ 1725   6.515   3.876   9.179
    38G11  C0GI 1726   6.626   3.814   9.124
    38G11  H01L 1727   6.666   3.857   9.033
    38G11  C0EZ 1728   6.499   3.662   9.481
    38G11  C0GG 1729   6.688   3.697   9.173
    38G11  C0GF 1730   6.792   3.626   9.112
    38G11  H01M 1731   6.828   3.660   9.016
    38G11  C0GE 1732   6.860   3.522   9.171
    38G11  H01K 1733   6.934   3.474   9.109
    38G11  O00J 1734   7.007   3.329   9.317
    38G11  C0GA 1735   7.057   3.210   9.359
    38G11  C0G9 1736   7.170   3.162   9.298
    38G11  H01H 1737   7.202   3.218   9.212
    38G11  C0G8 1738   7.231   3.042   9.343
    38G11  C0G7 1739   7.334   2.970   9.272
    38G11  H01I 1740   7.350   3.011   9.173
    38G11  O00I 1741   7.388   2.851   9.312
    38G11  C0G6 1742   7.316   2.790   9.412
    38G11  H01J 1743   7.329   2.683   9.412
    38G11  C02D 1744   7.227   2.863   9.501
    38G11  C02C 1745   7.178   2.807   9.625
    38G11  C017 1746   7.238   2.692   9.681
    38G11  C016 1747   7.191   2.642   9.801
    38G11  O001 1748   7.355   2.644   9.627
    38G11  C018 1749   7.427   2.557   9.701
    38G11  C009 1750   7.364   2.473   9.790
    38G11  C008 1751   7.408   2.351   9.849
    38G11  C007 1752   7.533   2.280   9.862
    38G11  C006 1753   7.651   2.333   9.806
    38G11  C005 1754   7.776   2.273   9.812
    38G11  C004 1755   7.818   2.159   9.889
    38G11  C003 1756   7.757   2.082   9.997
    38G11  C002 1757   7.837   2.000  10.081
    38G11  C00P 1758   7.782   1.943  10.197
    38G11  C00O 1759   7.866   1.874  10.288
    38G11  C00N 1760   7.818   1.817  10.410
    38G11  C010 1761   7.911   1.764  10.502
    38G11  C011 1762   7.866   1.713  10.625
    38G11  C01Q 1763   7.962   1.662  10.713
    38G11  C01U 1764   8.098   1.660  10.682
    38G11  C012 1765   8.139   1.697  10.550
    38G11  H000 1766   8.242   1.687  10.521
    38G11  C01V 1767   8.185   1.606  10.778
    38G11  H007 1768   8.289   1.591  10.753
    38G11  O005 1769   8.151   1.546  10.897
    38G11  C01W 1770   8.018   1.553  10.925
    38G11  C031 1771   7.980   1.522  11.049
    38G11  C032 1772   7.849   1.531  11.090
    38G11  H00A 1773   7.823   1.517  11.194
    38G11  C033 1774   7.751   1.570  10.999
    38G11  H00B 1775   7.648   1.548  11.021
    38G11  C01O 1776   7.786   1.627  10.875
    38G11  C01N 1777   7.691   1.688  10.793
    38G11  C01M 1778   7.550   1.708  10.822
    38G11  C01L 1779   7.454   1.731  10.930
    38G11  C01K 1780   7.332   1.750  10.876
    38G11  C01Y 1781   7.222   1.804  10.946
    38G11  C02I 1782   7.232   1.825  11.086
    38G11  C02N 1783   7.117   1.873  11.159
    38G11  C02M 1784   7.130   1.888  11.300
    38G11  C02L 1785   7.252   1.871  11.362
    38G11  C02K 1786   7.363   1.831  11.286
    38G11  C02U 1787   7.485   1.815  11.353
    38G11  C02V 1788   7.490   1.834  11.491
    38G11  C03H 1789   7.607   1.793  11.560
    38G11  H00C 1790   7.689   1.740  11.513
    38G11  C02W 1791   7.600   1.808  11.280
    38G11  C02X 1792   7.589   1.796  11.144
    38G11  C02Y 1793   7.714   1.837  11.093
    38G11  H008 1794   7.738   1.865  10.991
    38G11  C02Z 1795   7.807   1.856  11.207
    38G11  O004 1796   7.929   1.871  11.209
    38G11  O003 1797   7.729   1.843  11.316
    38G11  C02J 1798   7.360   1.805  11.147
    38G11  C01Z 1799   7.124   1.862  10.867
    38G11  C020 1800   7.139   1.880  10.728
    38G11  C01I 1801   7.247   1.825  10.663
    38G11  C01H 1802   7.295   1.876  10.548
    38G11  C00K 1803   7.428   1.859  10.512
    38G11  C01S 1804   7.513   1.786  10.593
    38G11  C014 1805   7.646   1.779  10.569
    38G11  C00J 1806   7.471   1.912  10.391
    38G11  C00I 1807   7.386   1.985  10.309
    38G11  C00H 1808   7.267   2.025  10.361
    38G11  C00G 1809   7.193   2.122  10.297
    38G11  C00S 1810   7.442   2.047  10.198
    38G11  C00T 1811   7.357   2.137  10.136
    38G11  C00U 1812   7.402   2.195  10.015
    38G11  C00R 1813   7.573   2.031  10.150
    38G11  C00L 1814   7.604   1.898  10.351
    38G11  C028 1815   7.219   1.974  10.481
    38G11  C023 1816   7.102   2.018  10.538
    38G11  C024 1817   7.037   2.131  10.478
    38G11  C021 1818   7.059   1.973  10.662
    38G11  C022 1819   6.955   2.037  10.731
    38G11  C02H 1820   6.893   2.143  10.670
    38G11  C030 1821   6.789   2.211  10.742
    38G11  C034 1822   6.750   2.162  10.859
    38G11  C02P 1823   6.933   2.005  10.863
    38G11  C02B 1824   7.019   1.925  10.938
    38G11  C01J 1825   7.336   1.737  10.736
    38G11  C01X 1826   7.475   1.775  11.065
    38G11  C01T 1827   7.469   1.731  10.710
    38G11  H009 1828   8.052   1.495  11.125
    38G11  C01P 1829   7.922   1.617  10.836
    38G11  C01R 1830   7.736   1.729  10.667
    38G11  C00Z 1831   8.045   1.751  10.460
    38G11  O000 1832   8.091   1.787  10.333
    38G11  C00M 1833   7.684   1.830  10.442
    38G11  C00Y 1834   8.007   1.852  10.255
    38G11  C013 1835   8.051   1.900  10.132
    38G11  H001 1836   8.156   1.891  10.112
    38G11  C00Q 1837   7.651   1.957  10.232
    38G11  C001 1838   7.966   1.972  10.047
    38G11  C000 1839   8.009   2.017   9.923
    38G11  H006 1840   8.104   1.978   9.890
    38G11  C00W 1841   7.627   2.101  10.037
    38G11  C01G 1842   7.944   2.109   9.850
    38G11  H005 1843   7.998   2.136   9.760
    38G11  C01C 1844   7.869   2.356   9.744
    38G11  H002 1845   7.977   2.360   9.751
    38G11  C01B 1846   7.794   2.462   9.699
    38G11  C01D 1847   7.847   2.580   9.638
    38G11  H003 1848   7.952   2.592   9.615
    38G11  C01E 1849   7.755   2.667   9.591
    38G11  H004 1850   7.797   2.747   9.532
    38G11  O002 1851   7.622   2.659   9.599
    38G11  C01A 1852   7.661   2.449   9.726
    38G11  C00V 1853   7.534   2.185   9.968
    38G11  C019 1854   7.569   2.551   9.677
    38G11  C02E 1855   7.077   2.867   9.694
    38G11  C0FX 1856   7.019   2.982   9.641
    38G11  C0FW 1857   6.904   3.035   9.698
    38G11  C0GB 1858   7.069   3.038   9.527
    38G11  C0G3 1859   7.026   2.816   9.808
    38G11  C07H 1860   6.911   2.869   9.867
    38G11  C0GC 1861   7.180   2.987   9.463
    38G11  C0G2 1862   7.005   3.146   9.470
    38G11  C0G1 1863   6.898   3.204   9.533
    38G11  C0FB 1864   6.667   3.484   9.480
    38G11  C0F2 1865   6.576   3.392   9.727
    38G11  C0FY 1866   6.851   3.155   9.651
    38G11  C0F5 1867   6.593   3.233   9.898
    38G11  C0FV 1868   6.852   2.981   9.815
    38G11  C079 1869   6.593   3.052  10.063
    38G11  C07A 1870   6.607   2.885  10.239
    38G11  C06Y 1871   6.717   2.659  10.341
    38G11  C07D 1872   6.861   2.814   9.987
    38G11  C01F 1873   7.081   2.700   9.863
    38G11  C00A 1874   7.244   2.523   9.846
    38G11  C00X 1875   7.330   2.288   9.945
    38G11  C00F 1876   7.233   2.175  10.179
    38G11  C029 1877   7.016   2.464  10.131
    38G11  C025 1878   7.084   2.179  10.363
    38G11  C06U 1879   6.862   2.472  10.324
    38G11  C02A 1880   6.932   2.193  10.545
    38G11  C05Y 1881   6.734   2.325  10.696
    38G11  C05Z 1882   6.639   2.395  10.763
    38G11  C060 1883   6.592   2.347  10.888
    38G11  C062 1884   6.506   2.423  10.966
    38G11  C06T 1885   6.772   2.542  10.396
    38G11  C06A 1886   6.586   2.512  10.709
    38G11  C06Z 1887   6.622   2.725  10.420
    38G11  C06Q 1888   6.428   2.859  10.556
    38G11  C068 1889   6.482   2.577  10.780
    38G11  C067 1890   6.443   2.536  10.911
    38G11  C063 1891   6.185   2.785  11.138
    38G11  C06C 1892   6.112   2.876  11.212
    38G11  C06D 1893   6.071   2.854  11.339
    38G11  C06E 1894   6.022   2.945  11.434
    38G11  C07Q 1895   6.002   3.071  11.386
    38G11  C07P 1896   6.026   3.097  11.251
    38G11  C07T 1897   5.995   3.224  11.203
    38G11  C07U 1898   6.010   3.254  11.066
    38G11  C07V 1899   5.982   3.381  11.027
    38G11  C084 1900   5.937   3.482  11.110
    38G11  C08C 1901   5.916   3.453  11.242
    38G11  C08B 1902   5.873   3.548  11.332
    38G11  C08A 1903   5.862   3.509  11.463
    38G11  C089 1904   5.896   3.391  11.522
    38G11  C088 1905   5.901   3.375  11.660
    38G11  C087 1906   5.927   3.249  11.702
    38G11  C086 1907   5.950   3.141  11.615
    38G11  C08X 1908   5.893   3.487  11.747
    38G11  C08T 1909   5.840   3.603  11.684
    38G11  C08D 1910   5.938   3.295  11.433
    38G11  C08U 1911   5.817   3.612  11.549
    38G11  C08V 1912   5.788   3.741  11.501
    38G11  C0CY 1913   5.797   3.771  11.367
    38G11  C0CX 1914   5.778   3.904  11.336
    38G11  C0CW 1915   5.801   3.936  11.205
    38G11  C0CV 1916   5.836   3.839  11.115
    38G11  C0D4 1917   5.854   3.706  11.157
    38G11  C0CU 1918   5.861   3.874  10.983
    38G11  C0CT 1919   5.859   4.007  10.936
    38G11  C0CS 1920   5.815   4.103  11.032
    38G11  C0D6 1921   5.905   3.774  10.901
    38G11  C0EC 1922   5.928   3.643  10.937
    38G11  C07X 1923   5.979   3.546  10.849
    38G11  C0DL 1924   5.948   3.812  10.776
    38G11  C0DK 1925   5.993   3.716  10.687
    38G11  C0DN 1926   6.022   3.785  10.581
    38G11  C0D8 1927   5.950   3.946  10.727
    38G11  C08W 1928   5.782   3.829  11.609
    38G11  C0CQ 1929   5.772   3.971  11.576
    38G11  C093 1930   5.835   3.673  11.286
    38G11  C092 1931   5.903   3.607  11.071
    38G11  C085 1932   5.946   3.321  11.293
    38G11  C07S 1933   5.965   3.167  11.480
    38G11  C06F 1934   5.992   2.912  11.567
    38G11  C07O 1935   6.079   3.003  11.166
    38G11  C07N 1936   6.118   3.038  11.037
    38G11  C05D 1937   6.086   2.725  11.384
    38G11  C05C 1938   6.057   2.691  11.510
    38G11  C05N 1939   6.117   2.570  11.538
    38G11  C05M 1940   6.380   2.404  11.315
    38G11  C05I 1941   6.486   2.386  11.099
    38G11  C061 1942   6.655   2.234  10.938
    38G11  C02Q 1943   6.820   2.058  10.913
    38G11  C02O 1944   7.006   1.911  11.079
    38G11  C03Q 1945   6.719   2.070  11.246
    38G11  C03O 1946   6.713   2.122  11.476
    38G11  C03L 1947   6.944   2.070  11.728
    38G11  C02S 1948   7.029   1.956  11.381
    38G11  C02T 1949   7.270   1.912  11.502
    38G11  C03K 1950   7.075   2.053  11.795
    38G11  C03I 1951   7.388   1.895  11.563
    38G11  C03G 1952   7.635   1.838  11.691
    38G11  H00D 1953   7.724   1.820  11.749
    38G11  C03J 1954   7.341   2.053  11.891
    38G11  C03W 1955   7.427   2.192  12.116
    38G11  C04I 1956   7.204   2.234  12.170
    38G11  C04K 1957   6.998   2.325  12.327
    38G11  C04N 1958   6.889   2.386  12.392
    38G11  C04X 1959   6.653   2.447  12.393
    38G11  C050 1960   6.415   2.533  12.394
    38G11  C05W 1961   6.387   2.410  12.141
    38G11  C05S 1962   6.036   2.727  12.200
    38G11  C05R 1963   6.158   2.487  11.958
    38G11  C05O 1964   6.131   2.530  11.674
    38G11  C05B 1965   6.010   2.783  11.609
    38G11  C05A 1966   5.959   2.770  11.974
    38G11  C07R 1967   5.965   3.012  11.662
    38G11  C08N 1968   5.937   3.223  11.844
    38G11  C08M 1969   5.941   3.340  11.929
    38G11  C08L 1970   5.958   3.316  12.069
    38G11  C091 1971   5.971   2.823  12.109
    38G11  C09K 1972   5.789   3.019  12.330
    38G11  H00M 1973   5.696   2.973  12.300
    38G11  C08K 1974   5.963   3.177  12.113
    38G11  C09J 1975   5.799   3.129  12.417
    38G11  C09I 1976   5.713   3.215  12.493
    38G11  C09L 1977   5.615   3.188  12.585
    38G11  H00N 1978   5.584   3.087  12.611
    38G11  C09Q 1979   5.560   3.292  12.650
    38G11  H00O 1980   5.480   3.271  12.720
    38G11  O00B 1981   5.587   3.426  12.618
    38G11  C09G 1982   5.686   3.452  12.522
    38G11  C09F 1983   5.707   3.587  12.486
    38G11  O00A 1984   5.617   3.661  12.561
    38G11  C09P 1985   5.555   3.767  12.502
    38G11  H00P 1986   5.475   3.811  12.560
    38G11  C09O 1987   5.596   3.824  12.374
    38G11  C09D 1988   5.730   3.777  12.330
    38G11  C09C 1989   5.815   3.835  12.220
    38G11  C09N 1990   5.796   3.944  12.127
    38G11  C09T 1991   5.672   4.022  12.121
    38G11  C09S 1992   5.552   4.003  12.194
    38G11  C0CP 1993   5.464   4.089  12.132
    38G11  C0CN 1994   5.517   4.171  12.028
    38G11  C0CO 1995   5.438   4.247  11.948
    38G11  H014 1996   5.467   4.302  11.860
    38G11  C0CZ 1997   5.301   4.259  12.001
    38G11  H015 1998   5.233   4.320  11.944
    38G11  C0D0 1999   5.248   4.182  12.110
    38G11  C0G5 2000   5.107   4.188  12.155
    38G11  H01F 2001   5.037   4.256  12.109
    38G11  C0G4 2002   5.062   4.090  12.237
    38G11  H01G 2003   4.957   4.085  12.261
    38G11  O00H 2004   5.135   3.989  12.296
    38G11  C0D2 2005   5.271   3.999  12.268
    38G11  C09V 2006   5.367   3.914  12.333
    38G11  H00Q 2007   5.324   3.851  12.409
    38G11  C0D1 2008   5.329   4.090  12.175
    38G11  C09R 2009   5.509   3.918  12.302
    38G11  C09H 2010   5.753   3.348  12.464
    38G11  C09E 2011   5.782   3.647  12.382
    38G11  C09B 2012   5.928   3.772  12.164
    38G11  C08Z 2013   5.954   3.429  12.158
    38G11  C08O 2014   5.931   3.475  11.875
    38G11  C09A 2015   5.974   3.824  12.045
    38G11  C08S 2016   5.819   3.742  11.727
    38G11  C099 2017   5.894   3.942  12.017
    38G11  C09U 2018   5.651   4.123  12.019
    38G11  C0BO 2019   5.722   4.439  11.677
    38G11  C0CL 2020   5.769   4.074  11.677
    38G11  C0D3 2021   5.763   4.000  11.439
    38G11  C0D5 2022   5.795   4.065  11.164
    38G11  C0BR 2023   5.721   4.364  11.449
    38G11  C0BQ 2024   5.712   4.464  11.544
    38G11  C0BL 2025   5.725   4.678  11.724
    38G11  C0AF 2026   5.676   4.935  11.637
    38G11  C0BH 2027   5.642   4.753  11.322
    38G11  C0BG 2028   5.626   4.784  11.187
    38G11  C0BD 2029   5.589   5.015  11.235
    38G11  C0AG 2030   5.644   5.060  11.589
    38G11  C0AI 2031   5.667   5.294  11.629
    38G11  C0AV 2032   5.734   5.539  11.533
    38G11  C0BB 2033   5.564   5.378  11.245
    38G11  O00C 2034   5.763   5.662  11.322
    38G11  C0BC 2035   5.557   5.426  11.117
    38G11  C0B9 2036   5.570   5.143  11.190
    38G11  O00E 2037   5.547   5.096  10.832
    38G11  C0CA 2038   5.545   4.997  10.732
    38G11  O00F 2039   5.503   5.025  10.620
    38G11  C0BF 2040   5.596   4.912  11.144
    38G11  C0C5 2041   5.589   4.870  10.777
    38G11  C0C4 2042   5.604   4.767  10.677
    38G11  H011 2043   5.584   4.784  10.573
    38G11  C0C8 2044   5.650   4.685  11.094
    38G11  C0C2 2045   5.649   4.642  10.730
    38G11  C0C3 2046   5.688   4.540  10.642
    38G11  C0DY 2047   5.686   4.543  10.502
    38G11  H016 2048   5.647   4.618  10.434
    38G11  C0DX 2049   5.751   4.418  10.461
    38G11  C0DW 2050   5.741   4.370  10.328
    38G11  C0BY 2051   5.715   4.454  11.040
    38G11  C0DB 2052   5.745   4.419  10.685
    38G11  C0CC 2053   5.791   4.230  10.989
    38G11  C0D7 2054   5.886   4.044  10.803
    38G11  C0DZ 2055   5.790   4.338  10.580
    38G11  C0DM 2056   6.001   3.928  10.595
    38G11  C0DQ 2057   5.894   4.167  10.342
    38G11  C0DV 2058   5.826   4.270  10.274
    38G11  C0E0 2059   5.697   4.441  10.207
    38G11  C0FO 2060   5.668   4.320   9.888
    38G11  C0E3 2061   5.561   4.477  10.165
    38G11  H017 2062   5.481   4.496  10.235
    38G11  C0GV 2063   5.536   4.337   9.846
    38G11  C0ES 2064   5.734   4.199   9.853
    38G11  C0GQ 2065   5.501   4.098   9.581
    38G11  C0FJ 2066   5.780   3.851   9.515
    38G11  C0ED 2067   5.866   3.958   9.769
    38G11  C0ER 2068   6.161   3.811   9.671
    38G11  C0EP 2069   6.220   3.712   9.873
    38G11  C0E6 2070   5.965   3.955  10.016
    38G11  C0DE 2071   6.091   3.846  10.284
    38G11  C0EA 2072   6.249   3.565  10.076
    38G11  C0DF 2073   6.160   3.761  10.371
    38G11  C080 2074   6.174   3.391  10.359
    38G11  C0DO 2075   6.102   3.714  10.490
    38G11  C0DJ 2076   6.020   3.583  10.725
    38G11  C07K 2077   6.173   3.271  10.601
    38G11  C07W 2078   6.007   3.416  10.891
    38G11  C083 2079   6.074   3.165  10.986
    38G11  C07J 2080   6.217   3.146  10.655
    38G11  C06O 2081   6.301   2.899  10.758
    38G11  C06M 2082   6.180   2.945  10.955
    48G11  C071 2083   4.393   5.762   8.094
    48G11  C07L 2084   4.361   5.872   8.175
    48G11  C07M 2085   4.298   5.849   8.295
    48G11  C07Y 2086   4.263   5.959   8.381
    48G11  C081 2087   4.293   6.089   8.349
    48G11  C082 2088   4.254   6.190   8.444
    48G11  C0DI 2089   4.290   6.333   8.443
    48G11  C0DH 2090   4.352   6.420   8.348
    48G11  C0DG 2091   4.383   6.551   8.403
    48G11  C0E9 2092   4.366   6.680   8.343
    48G11  C0E8 2093   4.277   6.762   8.442
    48G11  C0E7 2094   4.244   6.908   8.445
    48G11  C0EB 2095   4.315   7.000   8.350
    48G11  C0EF 2096   4.299   7.143   8.328
    48G11  C0EE 2097   4.204   7.242   8.368
    48G11  C0FD 2098   4.188   7.351   8.284
    48G11  C0FE 2099   4.202   7.354   8.146
    48G11  H01B 2100   4.222   7.259   8.099
    48G11  C0FF 2101   4.193   7.472   8.069
    48G11  H01A 2102   4.188   7.481   7.961
    48G11  C0FG 2103   4.186   7.592   8.147
    48G11  H018 2104   4.180   7.687   8.095
    48G11  C0FH 2105   4.183   7.600   8.287
    48G11  C0FI 2106   4.196   7.717   8.372
    48G11  H019 2107   4.213   7.812   8.323
    48G11  O00K 2108   4.198   7.708   8.509
    48G11  C0FL 2109   4.157   7.590   8.564
    48G11  C0FK 2110   4.149   7.466   8.490
    48G11  C0FM 2111   4.101   7.352   8.548
    48G11  C0FN 2112   4.048   7.362   8.677
    48G11  C0FP 2113   4.056   7.477   8.754
    48G11  C0GO 2114   4.015   7.485   8.880
    48G11  C0GN 2115   4.040   7.585   8.970
    48G11  C0GR 2116   4.113   7.696   8.922
    48G11  C0GS 2117   4.146   7.797   9.006
    48G11  H01Q 2118   4.203   7.879   8.965
    48G11  C0GT 2119   4.104   7.790   9.140
    48G11  H01O 2120   4.134   7.869   9.208
    48G11  C0GU 2121   4.023   7.688   9.190
    48G11  H01P 2122   3.992   7.679   9.293
    48G11  O00L 2123   4.149   7.703   8.785
    48G11  C0GM 2124   3.998   7.573   9.107
    48G11  C0GL 2125   3.935   7.453   9.151
    48G11  H01R 2126   3.917   7.432   9.256
    48G11  C0GK 2127   3.885   7.366   9.049
    48G11  C0GP 2128   3.818   7.239   9.052
    48G11  C0E2 2129   3.807   7.190   8.916
    48G11  C0E1 2130   3.827   7.052   8.919
    48G11  C0DU 2131   3.926   6.981   8.840
    48G11  C0DT 2132   3.998   7.011   8.728
    48G11  C0E4 2133   4.020   7.130   8.670
    48G11  C0E5 2134   4.111   7.116   8.566
    48G11  C0DS 2135   4.090   6.923   8.662
    48G11  C0DR 2136   4.107   6.802   8.731
    48G11  C0DD 2137   4.179   6.688   8.687
    48G11  C0DC 2138   4.141   6.584   8.785
    48G11  C0DP 2139   4.066   6.636   8.894
    48G11  C0DA 2140   4.039   6.572   9.024
    48G11  C0D9 2141   4.031   6.432   9.064
    48G11  C0CR 2142   4.004   6.392   9.202
    48G11  C0C0 2143   4.003   6.480   9.309
    48G11  C0BZ 2144   3.966   6.458   9.441
    48G11  C0C1 2145   3.947   6.562   9.536
    48G11  C0C7 2146   3.926   6.535   9.669
    48G11  C0C6 2147   3.903   6.637   9.763
    48G11  C0C9 2148   3.879   6.606   9.891
    48G11  C0B8 2149   3.841   6.705   9.980
    48G11  C0B7 2150   3.825   6.683  10.118
    48G11  C0B6 2151   3.787   6.767  10.228
    48G11  C0B5 2152   3.687   6.871  10.208
    48G11  H00Z 2153   3.645   6.902  10.114
    48G11  C0B4 2154   3.626   6.884  10.339
    48G11  H010 2155   3.525   6.919  10.357
    48G11  C0B3 2156   3.699   6.802  10.436
    48G11  C0AP 2157   3.656   6.701  10.530
    48G11  C0AQ 2158   3.734   6.586  10.505
    48G11  C0AR 2159   3.695   6.456  10.537
    48G11  C0AS 2160   3.755   6.360  10.465
    48G11  C0AT 2161   3.807   6.382  10.335
    48G11  C0BA 2162   3.832   6.510  10.292
    48G11  C0AU 2163   3.825   6.283  10.243
    48G11  C0BE 2164   3.865   6.312  10.114
    48G11  C0BI 2165   3.875   6.209  10.021
    48G11  C0BJ 2166   3.840   6.081  10.057
    48G11  C0BK 2167   3.846   5.978   9.965
    48G11  C0BW 2168   3.875   6.006   9.833
    48G11  C0BV 2169   3.886   6.138   9.791
    48G11  C0BU 2170   3.910   6.165   9.655
    48G11  C0BX 2171   3.923   6.296   9.613
    48G11  C0BT 2172   3.915   6.064   9.555
    48G11  C0CD 2173   3.933   6.095   9.422
    48G11  C0CB 2174   3.951   6.226   9.380
    48G11  C0CE 2175   3.939   5.992   9.332
    48G11  C0CK 2176   3.924   5.857   9.376
    48G11  C0BS 2177   3.903   5.828   9.509
    48G11  C0CJ 2178   3.885   5.698   9.549
    48G11  C0BP 2179   3.862   5.667   9.686
    48G11  C0CI 2180   3.838   5.537   9.731
    48G11  C0CH 2181   3.830   5.513   9.868
    48G11  H012 2182   3.825   5.408   9.893
    48G11  C0BN 2183   3.805   5.617   9.960
    48G11  C0CG 2184   3.741   5.590  10.081
    48G11  C0CF 2185   3.694   5.458  10.114
    48G11  H013 2186   3.725   5.372  10.057
    48G11  O00G 2187   3.631   5.432  10.233
    48G11  C0AA 2188   3.592   5.537  10.313
    48G11  C0A9 2189   3.526   5.507  10.434
    48G11  H00U 2190   3.493   5.408  10.462
    48G11  C0A8 2191   3.490   5.620  10.515
    48G11  H00V 2192   3.434   5.591  10.603
    48G11  C0A7 2193   3.512   5.753  10.483
    48G11  C0A6 2194   3.605   5.781  10.368
    48G11  C0A5 2195   3.666   5.907  10.338
    48G11  C0A4 2196   3.653   6.022  10.431
    48G11  C0A3 2197   3.571   6.060  10.544
    48G11  C0A2 2198   3.462   5.992  10.596
    48G11  C0A1 2199   3.378   6.046  10.700
    48G11  C0A0 2200   3.343   6.178  10.754
    48G11  C09Z 2201   3.244   6.174  10.852
    48G11  C09Y 2202   3.193   6.295  10.914
    48G11  H00Y 2203   3.109   6.285  10.981
    48G11  C09X 2204   3.253   6.416  10.880
    48G11  C09W 2205   3.194   6.535  10.940
    48G11  H00R 2206   3.128   6.514  11.023
    48G11  C0AX 2207   3.248   6.658  10.910
    48G11  H00S 2208   3.208   6.741  10.967
    48G11  C0AW 2209   3.347   6.665  10.815
    48G11  H00T 2210   3.385   6.760  10.781
    48G11  C0AN 2211   3.397   6.553  10.743
    48G11  C0AO 2212   3.506   6.556  10.652
    48G11  C0AM 2213   3.348   6.424  10.775
    48G11  C0B2 2214   3.178   6.051  10.903
    48G11  O00D 2215   3.084   6.055  10.985
    48G11  C0B1 2216   3.218   5.924  10.857
    48G11  H00W 2217   3.186   5.828  10.895
    48G11  C0AL 2218   3.402   6.303  10.715
    48G11  C0AK 2219   3.519   6.318  10.633
    48G11  C0B0 2220   3.308   5.926  10.744
    48G11  C0AZ 2221   3.347   5.811  10.672
    48G11  H00X 2222   3.292   5.719  10.684
    48G11  C0AJ 2223   3.586   6.205  10.568
    48G11  C0AH 2224   3.728   6.133  10.399
    48G11  C0AE 2225   3.743   5.928  10.224
    48G11  C0AD 2226   3.762   5.822  10.137
    48G11  C0AY 2227   3.444   5.850  10.573
    48G11  C0AB 2228   3.632   5.673  10.282
    48G11  C0AC 2229   3.715   5.694  10.172
    48G11  C0BM 2230   3.828   5.748   9.919
    48G11  C0CM 2231   3.825   5.437   9.634
    48G11  C09M 2232   3.898   5.455   9.512
    48G11  C098 2233   3.982   5.349   9.469
    48G11  C08R 2234   4.032   5.322   9.339
    48G11  C08Q 2235   4.110   5.206   9.333
    48G11  C08P 2236   4.144   5.106   9.232
    48G11  C08Y 2237   4.175   4.975   9.279
    48G11  C097 2238   4.125   4.939   9.406
    48G11  C096 2239   4.072   4.821   9.399
    48G11  C090 2240   4.143   4.753   9.297
    48G11  C095 2241   4.135   4.620   9.254
    48G11  C094 2242   4.222   4.567   9.146
    48G11  C08J 2243   4.294   4.635   9.040
    48G11  C08I 2244   4.292   4.557   8.924
    48G11  C08H 2245   4.310   4.643   8.814
    48G11  C08G 2246   4.280   4.780   8.854
    48G11  C08F 2247   4.251   4.912   8.784
    48G11  C08E 2248   4.272   4.931   8.646
    48G11  C059 2249   4.308   4.827   8.547
    48G11  C058 2250   4.332   4.859   8.410
    48G11  C057 2251   4.380   4.773   8.308
    48G11  C056 2252   4.401   4.644   8.354
    48G11  C055 2253   4.369   4.597   8.479
    48G11  C054 2254   4.446   4.481   8.505
    48G11  C053 2255   4.542   4.460   8.393
    48G11  C052 2256   4.655   4.373   8.386
    48G11  C051 2257   4.704   4.305   8.504
    48G11  C05U 2258   4.660   4.319   8.641
    48G11  C05T 2259   4.556   4.398   8.705
    48G11  C06K 2260   4.553   4.352   8.845
    48G11  H00J 2261   4.493   4.396   8.923
    48G11  C06L 2262   4.656   4.249   8.860
    48G11  H00I 2263   4.688   4.198   8.950
    48G11  C05V 2264   4.714   4.226   8.736
    48G11  C06J 2265   4.815   4.137   8.710
    48G11  H00K 2266   4.856   4.070   8.783
    48G11  C05X 2267   4.877   4.142   8.587
    48G11  C06I 2268   4.990   4.064   8.561
    48G11  H00L 2269   5.031   3.994   8.632
    48G11  C04Z 2270   5.065   4.077   8.442
    48G11  C06H 2271   5.194   4.018   8.427
    48G11  H00H 2272   5.239   3.961   8.507
    48G11  C04Y 2273   5.260   4.027   8.300
    48G11  C06G 2274   5.385   3.965   8.289
    48G11  O009 2275   5.452   3.909   8.382
    48G11  O008 2276   5.441   3.958   8.163
    48G11  C04P 2277   5.397   4.031   8.062
    48G11  C04J 2278   5.460   4.035   7.933
    48G11  C04Q 2279   5.558   3.957   7.870
    48G11  H00E 2280   5.584   3.867   7.924
    48G11  C04M 2281   5.617   3.976   7.745
    48G11  C04R 2282   5.714   3.893   7.681
    48G11  H00F 2283   5.736   3.797   7.726
    48G11  C04S 2284   5.770   3.931   7.565
    48G11  H00G 2285   5.849   3.864   7.534
    48G11  O007 2286   5.740   4.050   7.509
    48G11  C03V 2287   5.631   4.122   7.554
    48G11  C03U 2288   5.586   4.230   7.474
    48G11  O006 2289   5.654   4.257   7.362
    48G11  C03F 2290   5.610   4.357   7.284
    48G11  C03E 2291   5.500   4.435   7.322
    48G11  C03D 2292   5.419   4.401   7.430
    48G11  C03C 2293   5.302   4.472   7.465
    48G11  C03B 2294   5.271   4.579   7.380
    48G11  C03A 2295   5.156   4.653   7.397
    48G11  C039 2296   5.081   4.624   7.517
    48G11  C038 2297   4.983   4.737   7.511
    48G11  C037 2298   5.013   4.807   7.388
    48G11  C036 2299   4.942   4.920   7.358
    48G11  C02R 2300   4.971   5.011   7.255
    48G11  C035 2301   4.877   5.113   7.284
    48G11  C03R 2302   4.797   5.080   7.395
    48G11  C03S 2303   4.740   5.177   7.474
    48G11  C049 2304   4.690   5.135   7.594
    48G11  C048 2305   4.724   5.003   7.630
    48G11  C03P 2306   4.821   4.912   7.566
    48G11  C047 2307   4.655   4.966   7.745
    48G11  C046 2308   4.660   4.844   7.811
    48G11  C045 2309   4.734   4.725   7.793
    48G11  C03T 2310   4.836   4.700   7.702
    48G11  C044 2311   4.887   4.571   7.727
    48G11  C043 2312   4.806   4.514   7.828
    48G11  C042 2313   4.873   4.416   7.905
    48G11  C041 2314   5.000   4.405   7.824
    48G11  C040 2315   5.110   4.335   7.867
    48G11  C03Z 2316   5.228   4.304   7.788
    48G11  C04H 2317   5.293   4.207   7.870
    48G11  C04G 2318   5.228   4.187   7.988
    48G11  C03N 2319   5.281   4.329   7.661
    48G11  C03Y 2320   5.400   4.262   7.629
    48G11  C03X 2321   5.456   4.161   7.713
    48G11  C04F 2322   5.112   4.258   7.994
    48G11  C04E 2323   5.032   4.245   8.111
    48G11  C04O 2324   5.077   4.164   8.217
    48G11  C04D 2325   4.909   4.305   8.134
    48G11  C04V 2326   4.840   4.284   8.255
    48G11  C04W 2327   4.890   4.215   8.367
    48G11  C04C 2328   4.828   4.373   8.041
    48G11  C04L 2329   4.710   4.415   8.122
    48G11  C04U 2330   4.624   4.524   8.084
    48G11  C05Q 2331   4.537   4.588   8.170
    48G11  C05P 2332   4.504   4.712   8.122
    48G11  C04T 2333   4.570   4.734   8.004
    48G11  C04B 2334   4.641   4.619   7.983
    48G11  C03M 2335   5.011   4.497   7.708
    48G11  C04A 2336   4.727   4.618   7.876
    48G11  C05H 2337   4.580   4.848   7.920
    48G11  C05G 2338   4.531   4.981   7.932
    48G11  C05F 2339   4.456   5.023   8.037
    48G11  C05E 2340   4.422   5.160   8.071
    48G11  C05L 2341   4.450   5.287   8.015
    48G11  C05K 2342   4.506   5.300   7.884
    48G11  C05J 2343   4.566   5.203   7.797
    48G11  C066 2344   4.512   5.439   7.837
    48G11  C065 2345   4.464   5.546   7.922
    48G11  C064 2346   4.417   5.524   8.053
    48G11  C06N 2347   4.492   5.676   7.884
    48G11  C069 2348   4.552   5.703   7.763
    48G11  C06P 2349   4.571   5.837   7.723
    48G11  C06R 2350   4.643   5.873   7.606
    48G11  C06B 2351   4.692   5.768   7.526
    48G11  C06S 2352   4.767   5.801   7.409
    48G11  C02G 2353   4.812   5.700   7.326
    48G11  C02F 2354   4.896   5.729   7.218
    48G11  C027 2355   4.936   5.859   7.196
    48G11  C026 2356   5.016   5.887   7.085
    48G11  C00E 2357   5.062   6.018   7.067
    48G11  C00D 2358   5.150   6.043   6.964
    48G11  C00C 2359   5.195   6.168   6.952
    48G11  C00B 2360   5.162   6.271   7.034
    48G11  C015 2361   5.079   6.245   7.146
    48G11  C07F 2362   5.050   6.347   7.235
    48G11  C07E 2363   4.955   6.321   7.332
    48G11  C06W 2364   4.901   6.194   7.343
    48G11  C06V 2365   4.944   6.091   7.262
    48G11  C06X 2366   4.813   6.165   7.448
    48G11  C07B 2367   4.773   6.264   7.536
    48G11  C07C 2368   4.828   6.394   7.524
    48G11  C0FU 2369   4.797   6.489   7.620
    48G11  C0F7 2370   4.865   6.612   7.616
    48G11  C0F6 2371   4.838   6.710   7.712
    48G11  C0F8 2372   4.899   6.833   7.701
    48G11  C0F9 2373   4.861   6.934   7.786
    48G11  C0FA 2374   4.933   7.056   7.786
    48G11  C0FZ 2375   5.041   7.068   7.700
    48G11  C0G0 2376   5.116   7.185   7.697
    48G11  C0GD 2377   5.082   7.294   7.780
    48G11  C0FC 2378   4.973   7.279   7.870
    48G11  C0GH 2379   4.942   7.383   7.958
    48G11  C0EY 2380   4.831   7.372   8.042
    48G11  C0EX 2381   4.789   7.474   8.124
    48G11  C0EW 2382   4.679   7.456   8.211
    48G11  C0FR 2383   4.648   7.558   8.306
    48G11  H01D 2384   4.573   7.546   8.382
    48G11  C0FS 2385   4.729   7.673   8.315
    48G11  H01C 2386   4.704   7.743   8.394
    48G11  C0GJ 2387   4.828   7.690   8.221
    48G11  H01N 2388   4.879   7.785   8.223
    48G11  C0EV 2389   4.603   7.335   8.203
    48G11  C0FT 2390   4.485   7.320   8.281
    48G11  H01E 2391   4.450   7.406   8.336
    48G11  C0EU 2392   4.649   7.236   8.125
    48G11  C0ET 2393   4.595   7.110   8.136
    48G11  C0EI 2394   4.633   6.996   8.067
    48G11  C0F1 2395   4.732   7.013   7.971
    48G11  C0F0 2396   4.796   7.142   7.957
    48G11  C0EH 2397   4.568   6.869   8.083
    48G11  C0EG 2398   4.472   6.846   8.188
    48G11  C0EJ 2399   4.615   6.765   7.998
    48G11  C0F3 2400   4.707   6.790   7.900
    48G11  C0EK 2401   4.560   6.639   8.011
    48G11  C0EL 2402   4.483   6.606   8.126
    48G11  C0EM 2403   4.451   6.469   8.131
    48G11  C0EN 2404   4.484   6.383   8.031
    48G11  C07I 2405   4.451   6.252   8.057
    48G11  C074 2406   4.480   6.148   7.965
    48G11  C073 2407   4.446   6.023   8.014
    48G11  C072 2408   4.477   5.917   7.926
    48G11  C075 2409   4.535   6.182   7.847
    48G11  C076 2410   4.571   6.312   7.829
    48G11  C078 2411   4.649   6.339   7.722
    48G11  C07G 2412   4.571   6.080   7.765
    48G11  C070 2413   4.647   6.108   7.659
    48G11  C07Z 2414   4.389   6.241   8.177
    48G11  C077 2415   4.552   6.413   7.921
    48G11  C0EO 2416   4.594   6.541   7.912
    48G11  C0F4 2417   4.670   6.570   7.806
    48G11  C0EQ 2418   4.479   7.089   8.214
    48G11  C0FQ 2419   4.859   7.592   8.122
    48G11  C0GI 2420   4.974   7.607   8.042
    48G11  H01L 2421   5.032   7.698   8.046
    48G11  C0EZ 2422   4.758   7.252   8.039
    48G11  C0GG 2423   5.023   7.504   7.959
    48G11  C0GF 2424   5.130   7.513   7.875
    48G11  H01M 2425   5.190   7.602   7.886
    48G11  C0GE 2426   5.156   7.412   7.785
    48G11  H01K 2427   5.244   7.426   7.724
    48G11  O00J 2428   5.222   7.204   7.618
    48G11  C0GA 2429   5.254   7.109   7.525
    48G11  C0G9 2430   5.367   7.129   7.437
    48G11  H01H 2431   5.424   7.220   7.447
    48G11  C0G8 2432   5.392   7.035   7.333
    48G11  C0G7 2433   5.494   7.046   7.240
    48G11  H01I 2434   5.573   7.120   7.246
    48G11  O00I 2435   5.516   6.952   7.138
    48G11  C0G6 2436   5.451   6.834   7.147
    48G11  H01J 2437   5.480   6.749   7.087
    48G11  C02D 2438   5.340   6.821   7.234
    48G11  C02C 2439   5.259   6.708   7.226
    48G11  C017 2440   5.262   6.617   7.113
    48G11  C016 2441   5.196   6.494   7.115
    48G11  O001 2442   5.318   6.649   6.992
    48G11  C018 2443   5.366   6.548   6.909
    48G11  C009 2444   5.315   6.420   6.915
    48G11  C008 2445   5.354   6.311   6.832
    48G11  C007 2446   5.457   6.279   6.737
    48G11  C006 2447   5.542   6.374   6.678
    48G11  C005 2448   5.644   6.341   6.585
    48G11  C004 2449   5.699   6.212   6.543
    48G11  C003 2450   5.658   6.071   6.574
    48G11  C002 2451   5.743   5.963   6.537
    48G11  C00P 2452   5.709   5.831   6.561
    48G11  C00O 2453   5.800   5.724   6.538
    48G11  C00N 2454   5.767   5.592   6.572
    48G11  C010 2455   5.860   5.486   6.567
    48G11  C011 2456   5.825   5.356   6.605
    48G11  C01Q 2457   5.918   5.245   6.583
    48G11  C01U 2458   6.043   5.273   6.532
    48G11  C012 2459   6.081   5.408   6.499
    48G11  H000 2460   6.178   5.422   6.453
    48G11  C01V 2461   6.128   5.158   6.503
    48G11  H007 2462   6.218   5.178   6.446
    48G11  O005 2463   6.096   5.030   6.531
    48G11  C01W 2464   5.978   5.010   6.593
    48G11  C031 2465   5.938   4.880   6.624
    48G11  C032 2466   5.805   4.849   6.664
    48G11  H00A 2467   5.775   4.749   6.693
    48G11  C033 2468   5.713   4.955   6.666
    48G11  H00B 2469   5.612   4.925   6.689
    48G11  C01O 2470   5.754   5.092   6.661
    48G11  C01N 2471   5.668   5.195   6.694
    48G11  C01M 2472   5.535   5.167   6.753
    48G11  C01L 2473   5.467   5.069   6.844
    48G11  C01K 2474   5.343   5.127   6.873
    48G11  C01Y 2475   5.256   5.094   6.980
    48G11  C02I 2476   5.277   4.974   7.045
    48G11  C02N 2477   5.182   4.937   7.140
    48G11  C02M 2478   5.202   4.815   7.210
    48G11  C02L 2479   5.321   4.738   7.189
    48G11  C02K 2480   5.418   4.788   7.100
    48G11  C02U 2481   5.539   4.714   7.087
    48G11  C02V 2482   5.550   4.586   7.143
    48G11  C03H 2483   5.656   4.500   7.105
    48G11  H00C 2484   5.731   4.520   7.030
    48G11  C02W 2485   5.652   4.775   7.038
    48G11  C02X 2486   5.631   4.892   6.965
    48G11  C02Y 2487   5.768   4.934   6.952
    48G11  H008 2488   5.810   5.026   6.914
    48G11  C02Z 2489   5.857   4.831   7.008
    48G11  O004 2490   5.980   4.835   7.015
    48G11  O003 2491   5.779   4.733   7.055
    48G11  C02J 2492   5.399   4.907   7.018
    48G11  C01Z 2493   5.163   5.189   7.011
    48G11  C020 2494   5.161   5.322   6.962
    48G11  C01I 2495   5.246   5.355   6.854
    48G11  C01H 2496   5.283   5.482   6.819
    48G11  C00K 2497   5.393   5.509   6.743
    48G11  C01S 2498   5.484   5.416   6.709
    48G11  C014 2499   5.613   5.435   6.670
    48G11  C00J 2500   5.432   5.633   6.720
    48G11  C00I 2501   5.351   5.740   6.761
    48G11  C00H 2502   5.238   5.713   6.849
    48G11  C00G 2503   5.167   5.814   6.914
    48G11  C00S 2504   5.391   5.870   6.732
    48G11  C00T 2505   5.308   5.964   6.796
    48G11  C00U 2506   5.337   6.094   6.771
    48G11  C00R 2507   5.507   5.899   6.663
    48G11  C00L 2508   5.548   5.665   6.649
    48G11  C028 2509   5.205   5.583   6.877
    48G11  C023 2510   5.112   5.552   6.975
    48G11  C024 2511   5.043   5.650   7.040
    48G11  C021 2512   5.088   5.424   7.021
    48G11  C022 2513   4.999   5.396   7.117
    48G11  C02H 2514   4.923   5.500   7.177
    48G11  C030 2515   4.838   5.469   7.282
    48G11  C034 2516   4.820   5.341   7.314
    48G11  C02P 2517   4.986   5.264   7.156
    48G11  C02B 2518   5.071   5.161   7.108
    48G11  C01J 2519   5.334   5.253   6.811
    48G11  C01X 2520   5.505   4.961   6.931
    48G11  C01T 2521   5.453   5.282   6.748
    48G11  H009 2522   6.021   4.810   6.624
    48G11  C01P 2523   5.881   5.116   6.615
    48G11  C01R 2524   5.701   5.326   6.656
    48G11  C00Z 2525   5.989   5.514   6.519
    48G11  O000 2526   6.014   5.641   6.467
    48G11  C00M 2527   5.642   5.565   6.630
    48G11  C00Y 2528   5.931   5.746   6.489
    48G11  C013 2529   5.961   5.874   6.455
    48G11  H001 2530   6.057   5.895   6.410
    48G11  C00Q 2531   5.586   5.797   6.621
    48G11  C001 2532   5.868   5.985   6.475
    48G11  C000 2533   5.899   6.116   6.436
    48G11  H006 2534   5.995   6.131   6.389
    48G11  C00W 2535   5.542   6.038   6.641
    48G11  C01G 2536   5.816   6.222   6.466
    48G11  H005 2537   5.852   6.318   6.433
    48G11  C01C 2538   5.699   6.471   6.552
    48G11  H002 2539   5.775   6.488   6.476
    48G11  C01B 2540   5.629   6.570   6.627
    48G11  C01D 2541   5.655   6.716   6.637
    48G11  H003 2542   5.729   6.763   6.574
    48G11  C01E 2543   5.589   6.775   6.741
    48G11  H004 2544   5.616   6.877   6.765
    48G11  O002 2545   5.493   6.721   6.827
    48G11  C01A 2546   5.532   6.512   6.713
    48G11  C00V 2547   5.457   6.135   6.710
    48G11  C019 2548   5.460   6.590   6.812
    48G11  C02E 2549   5.159   6.684   7.324
    48G11  C0FX 2550   5.135   6.780   7.424
    48G11  C0FW 2551   5.037   6.756   7.519
    48G11  C0GB 2552   5.210   6.894   7.428
    48G11  C0G3 2553   5.084   6.570   7.325
    48G11  C07H 2554   4.989   6.547   7.422
    48G11  C0GC 2555   5.313   6.919   7.334
    48G11  C0G2 2556   5.179   6.985   7.525
    48G11  C0G1 2557   5.079   6.965   7.619
    48G11  C0FB 2558   4.901   7.160   7.869
    48G11  C0F2 2559   4.773   6.913   7.891
    48G11  C0FY 2560   5.005   6.851   7.614
    48G11  C0F5 2561   4.735   6.690   7.803
    48G11  C0FV 2562   4.956   6.637   7.517
    48G11  C079 2563   4.703   6.469   7.718
    48G11  C07A 2564   4.689   6.239   7.638
    48G11  C06Y 2565   4.769   6.036   7.471
    48G11  C07D 2566   4.923   6.419   7.423
    48G11  C01F 2567   5.110   6.473   7.226
    48G11  C00A 2568   5.225   6.394   7.021
    48G11  C00X 2569   5.296   6.192   6.860
    48G11  C00F 2570   5.208   5.942   6.888
    48G11  C029 2571   5.029   6.116   7.161
    48G11  C025 2572   5.072   5.786   7.012
    48G11  C06U 2573   4.896   5.959   7.282
    48G11  C02A 2574   4.953   5.628   7.141
    48G11  C05Y 2575   4.775   5.569   7.351
    48G11  C05Z 2576   4.699   5.539   7.467
    48G11  C060 2577   4.687   5.401   7.508
    48G11  C062 2578   4.623   5.367   7.628
    48G11  C06T 2579   4.810   5.934   7.389
    48G11  C06A 2580   4.657   5.637   7.557
    48G11  C06Z 2581   4.689   6.006   7.579
    48G11  C06Q 2582   4.536   5.946   7.804
    48G11  C068 2583   4.587   5.600   7.674
    48G11  C067 2584   4.569   5.466   7.712
    48G11  C063 2585   4.403   5.393   8.100
    48G11  C06C 2586   4.348   5.374   8.226
    48G11  C06D 2587   4.324   5.249   8.277
    48G11  C06E 2588   4.282   5.220   8.406
    48G11  C07Q 2589   4.247   5.324   8.488
    48G11  C07P 2590   4.249   5.453   8.434
    48G11  C07T 2591   4.202   5.555   8.506
    48G11  C07U 2592   4.216   5.690   8.463
    48G11  C07V 2593   4.173   5.796   8.542
    48G11  C084 2594   4.113   5.768   8.664
    48G11  C08C 2595   4.105   5.632   8.713
    48G11  C08B 2596   4.047   5.612   8.837
    48G11  C08A 2597   4.060   5.486   8.887
    48G11  C089 2598   4.116   5.374   8.820
    48G11  C088 2599   4.133   5.248   8.884
    48G11  C087 2600   4.179   5.141   8.810
    48G11  C086 2601   4.214   5.164   8.673
    48G11  C08X 2602   4.106   5.227   9.024
    48G11  C08T 2603   4.035   5.338   9.087
    48G11  C08D 2604   4.159   5.398   8.694
    48G11  C08U 2605   4.015   5.462   9.016
    48G11  C08V 2606   3.974   5.565   9.099
    48G11  C0CY 2607   3.983   5.696   9.056
    48G11  C0CX 2608   3.956   5.794   9.145
    48G11  C0CW 2609   3.965   5.926   9.101
    48G11  C0CV 2610   4.004   5.952   8.972
    48G11  C0D4 2611   4.028   5.847   8.881
    48G11  C0CU 2612   4.021   6.081   8.931
    48G11  C0CT 2613   4.012   6.191   9.020
    48G11  C0CS 2614   3.980   6.159   9.154
    48G11  C0D6 2615   4.055   6.095   8.800
    48G11  C0EC 2616   4.089   6.000   8.709
    48G11  C07X 2617   4.149   6.022   8.588
    48G11  C0DL 2618   4.082   6.227   8.766
    48G11  C0DK 2619   4.147   6.252   8.647
    48G11  C0DN 2620   4.185   6.381   8.647
    48G11  C0D8 2621   4.085   6.342   8.850
    48G11  C08W 2622   3.945   5.518   9.227
    48G11  C0CQ 2623   3.929   5.624   9.326
    48G11  C093 2624   4.016   5.717   8.924
    48G11  C092 2625   4.076   5.871   8.753
    48G11  C085 2626   4.148   5.526   8.637
    48G11  C07S 2627   4.198   5.295   8.617
    48G11  C06F 2628   4.280   5.086   8.456
    48G11  C07O 2629   4.306   5.479   8.305
    48G11  C07N 2630   4.317   5.609   8.261
    48G11  C05D 2631   4.358   5.144   8.193
    48G11  C05C 2632   4.345   5.019   8.238
    48G11  C05N 2633   4.413   4.942   8.150
    48G11  C05M 2634   4.576   5.062   7.824
    48G11  C05I 2635   4.625   5.234   7.672
    48G11  C061 2636   4.749   5.307   7.431
    48G11  C02Q 2637   4.890   5.244   7.248
    48G11  C02O 2638   5.078   5.030   7.159
    48G11  C03Q 2639   4.845   4.965   7.443
    48G11  C03O 2640   4.877   4.781   7.598
    48G11  C03L 2641   5.108   4.515   7.606
    48G11  C02S 2642   5.124   4.765   7.323
    48G11  C02T 2643   5.348   4.618   7.268
    48G11  C03K 2644   5.229   4.433   7.576
    48G11  C03I 2645   5.467   4.547   7.246
    48G11  C03G 2646   5.690   4.391   7.175
    48G11  H00D 2647   5.778   4.334   7.149
    48G11  C03J 2648   5.461   4.300   7.512
    48G11  C03W 2649   5.569   4.087   7.675
    48G11  C04I 2650   5.404   4.123   7.836
    48G11  C04K 2651   5.279   4.106   8.078
    48G11  C04N 2652   5.201   4.099   8.198
    48G11  C04X 2653   5.007   4.152   8.339
    48G11  C050 2654   4.822   4.223   8.488
    48G11  C05W 2655   4.720   4.359   8.260
    48G11  C05S 2656   4.456   4.490   8.644
    48G11  C05R 2657   4.491   4.550   8.295
    48G11  C05O 2658   4.436   4.810   8.185
    48G11  C05B 2659   4.313   4.985   8.372
    48G11  C05A 2660   4.346   4.690   8.577
    48G11  C07R 2661   4.256   5.060   8.592
    48G11  C08N 2662   4.210   5.019   8.868
    48G11  C08M 2663   4.196   5.004   9.011
    48G11  C08L 2664   4.212   4.873   9.068
    48G11  C091 2665   4.377   4.611   8.692
    48G11  C09K 2666   4.176   4.469   8.936
    48G11  H00M 2667   4.117   4.427   8.856
    48G11  C08K 2668   4.266   4.767   8.996
    48G11  C09J 2669   4.138   4.465   9.082
    48G11  C09I 2670   4.014   4.454   9.161
    48G11  C09L 2671   3.909   4.357   9.150
    48G11  H00N 2672   3.916   4.291   9.065
    48G11  C09Q 2673   3.804   4.375   9.241
    48G11  H00O 2674   3.714   4.320   9.222
    48G11  O00B 2675   3.808   4.460   9.352
    48G11  C09G 2676   3.900   4.564   9.354
    48G11  C09F 2677   3.879   4.659   9.458
    48G11  O00A 2678   3.756   4.642   9.514
    48G11  C09P 2679   3.750   4.709   9.638
    48G11  H00P 2680   3.695   4.663   9.720
    48G11  C09O 2681   3.786   4.850   9.643
    48G11  C09D 2682   3.898   4.885   9.567
    48G11  C09C 2683   3.970   5.014   9.566
    48G11  C09N 2684   3.929   5.148   9.603
    48G11  C09T 2685   3.791   5.178   9.624
    48G11  C09S 2686   3.712   5.088   9.701
    48G11  C0CP 2687   3.623   5.174   9.767
    48G11  C0CN 2688   3.644   5.311   9.746
    48G11  C0CO 2689   3.568   5.409   9.809
    48G11  H014 2690   3.578   5.516   9.799
    48G11  C0CZ 2691   3.482   5.350   9.911
    48G11  H015 2692   3.425   5.422   9.969
    48G11  C0D0 2693   3.471   5.217   9.942
    48G11  C0G5 2694   3.390   5.162  10.046
    48G11  H01F 2695   3.331   5.235  10.099
    48G11  C0G4 2696   3.382   5.029  10.067
    48G11  H01G 2697   3.323   4.993  10.151
    48G11  O00H 2698   3.455   4.935   9.995
    48G11  C0D2 2699   3.535   4.985   9.895
    48G11  C09V 2700   3.618   4.896   9.820
    48G11  H00Q 2701   3.601   4.791   9.839
    48G11  C0D1 2702   3.540   5.120   9.866
    48G11  C09R 2703   3.710   4.944   9.722
    48G11  C09H 2704   4.012   4.553   9.263
    48G11  C09E 2705   3.954   4.785   9.478
    48G11  C09B 2706   4.086   5.036   9.491
    48G11  C08Z 2707   4.179   4.859   9.206
    48G11  C08O 2708   4.142   5.109   9.091
    48G11  C09A 2709   4.121   5.171   9.472
    48G11  C08S 2710   3.982   5.376   9.220
    48G11  C099 2711   4.026   5.239   9.546
    48G11  C09U 2712   3.759   5.317   9.662
    48G11  C0BO 2713   3.863   5.770   9.783
    48G11  C0CL 2714   3.901   5.590   9.457
    48G11  C0D3 2715   3.937   5.757   9.281
    48G11  C0D5 2716   3.960   6.026   9.194
    48G11  C0BR 2717   3.902   5.932   9.599
    48G11  C0BQ 2718   3.878   5.905   9.737
    48G11  C0BL 2719   3.817   5.852  10.008
    48G11  C0AF 2720   3.794   6.054  10.183
    48G11  C0BH 2721   3.892   6.240   9.886
    48G11  C0BG 2722   3.904   6.372   9.844
    48G11  C0BD 2723   3.867   6.445  10.067
    48G11  C0AG 2724   3.788   6.157  10.271
    48G11  C0AI 2725   3.694   6.237  10.486
    48G11  C0AV 2726   3.576   6.440  10.611
    48G11  C0BB 2727   3.814   6.609  10.392
    48G11  O00C 2728   3.544   6.681  10.604
    48G11  C0BC 2729   3.808   6.744  10.364
    48G11  C0B9 2730   3.845   6.549  10.163
    48G11  O00E 2731   3.834   6.839   9.943
    48G11  C0CA 2732   3.854   6.873   9.814
    48G11  O00F 2733   3.839   6.992   9.787
    48G11  C0BF 2734   3.881   6.475   9.936
    48G11  C0C5 2735   3.897   6.768   9.726
    48G11  C0C4 2736   3.929   6.806   9.591
    48G11  H011 2737   3.930   6.910   9.560
    48G11  C0C8 2738   3.914   6.399   9.708
    48G11  C0C2 2739   3.955   6.700   9.497
    48G11  C0C3 2740   3.976   6.719   9.358
    48G11  C0DY 2741   3.976   6.841   9.283
    48G11  H016 2742   3.950   6.939   9.322
    48G11  C0DX 2743   3.987   6.807   9.145
    48G11  C0DW 2744   3.923   6.888   9.045
    48G11  C0BY 2745   3.940   6.325   9.477
    48G11  C0DB 2746   3.997   6.615   9.266
    48G11  C0CC 2747   3.970   6.261   9.242
    48G11  C0D7 2748   4.036   6.321   8.981
    48G11  C0DZ 2749   4.012   6.661   9.133
    48G11  C0DM 2750   4.146   6.444   8.768
    48G11  C0DQ 2751   4.048   6.775   8.856
    48G11  C0DV 2752   3.970   6.878   8.914
    48G11  C0E0 2753   3.835   7.004   9.053
    48G11  C0FO 2754   3.889   7.275   8.839
    48G11  C0E3 2755   3.847   7.123   9.138
    48G11  H017 2756   3.915   7.131   9.222
    48G11  C0GV 2757   3.923   7.388   8.917
    48G11  C0ES 2758   3.980   7.249   8.732
    48G11  C0GQ 2759   4.125   7.593   8.704
    48G11  C0FJ 2760   4.170   7.475   8.349
    48G11  C0ED 2761   4.140   7.232   8.489
    48G11  C0ER 2762   4.421   7.196   8.274
    48G11  C0EP 2763   4.422   6.971   8.249
    48G11  C0E6 2764   4.154   6.974   8.548
    48G11  C0DE 2765   4.248   6.671   8.557
    48G11  C0EA 2766   4.440   6.711   8.217
    48G11  C0DF 2767   4.321   6.553   8.531
    48G11  C080 2768   4.383   6.380   8.220
    48G11  C0DO 2769   4.266   6.423   8.546
    48G11  C0DJ 2770   4.183   6.152   8.557
    48G11  C07K 2771   4.357   6.111   8.227
    48G11  C07W 2772   4.195   5.925   8.501
    48G11  C083 2773   4.275   5.719   8.337
    48G11  C07J 2774   4.394   6.004   8.141
    48G11  C06O 2775   4.454   5.782   7.967
    48G11  C06M 2776   4.371   5.632   8.133
    58G11  C071 2777   2.097   3.713   9.420
    58G11  C07L 2778   2.020   3.804   9.497
    58G11  C07M 2779   1.883   3.810   9.479
    58G11  C07Y 2780   1.810   3.915   9.532
    58G11  C081 2781   1.867   4.013   9.615
    58G11  C082 2782   1.785   4.119   9.664
    58G11  C0DI 2783   1.821   4.240   9.743
    58G11  C0DH 2784   1.939   4.289   9.798
    58G11  C0DG 2785   1.910   4.396   9.893
    58G11  C0E9 2786   1.977   4.521   9.926
    58G11  C0E8 2787   1.859   4.607   9.966
    58G11  C0E7 2788   1.862   4.728  10.052
    58G11  C0EB 2789   1.987   4.774  10.112
    58G11  C0EF 2790   1.998   4.852  10.241
    58G11  C0EE 2791   1.912   4.882  10.352
    58G11  C0FD 2792   1.959   4.878  10.484
    58G11  C0FE 2793   2.080   4.822  10.525
    58G11  H01B 2794   2.158   4.807  10.451
    58G11  C0FF 2795   2.119   4.809  10.657
    58G11  H01A 2796   2.220   4.777  10.679
    58G11  C0FG 2797   2.025   4.842  10.753
    58G11  H018 2798   2.047   4.831  10.858
    58G11  C0FH 2799   1.890   4.874  10.719
    58G11  C0FI 2800   1.791   4.908  10.815
    58G11  H019 2801   1.826   4.890  10.915
    58G11  O00K 2802   1.663   4.961  10.793
    58G11  C0FL 2803   1.640   4.975  10.657
    58G11  C0FK 2804   1.728   4.944  10.551
    58G11  C0FM 2805   1.688   4.954  10.416
    58G11  C0FN 2806   1.569   5.023  10.386
    58G11  C0FP 2807   1.482   5.053  10.492
    58G11  C0GO 2808   1.352   5.102  10.474
    58G11  C0GN 2809   1.254   5.113  10.569
    58G11  C0GR 2810   1.294   5.081  10.699
    58G11  C0GS 2811   1.201   5.099  10.803
    58G11  H01Q 2812   1.219   5.077  10.907
    58G11  C0GT 2813   1.072   5.142  10.770
    58G11  H01O 2814   0.995   5.155  10.845
    58G11  C0GU 2815   1.030   5.162  10.641
    58G11  H01P 2816   0.930   5.198  10.619
    58G11  O00L 2817   1.418   5.035  10.726
    58G11  C0GM 2818   1.121   5.152  10.533
    58G11  C0GL 2819   1.095   5.172  10.397
    58G11  H01R 2820   0.994   5.183  10.359
    58G11  C0GK 2821   1.199   5.177  10.306
    58G11  C0GP 2822   1.207   5.177  10.164
    58G11  C0E2 2823   1.343   5.167  10.122
    58G11  C0E1 2824   1.351   5.092  10.001
    58G11  C0DU 2825   1.435   4.982   9.968
    58G11  C0DT 2826   1.557   4.946  10.031
    58G11  C0E4 2827   1.597   4.978  10.159
    58G11  C0E5 2828   1.705   4.896  10.194
    58G11  C0DS 2829   1.619   4.824  10.003
    58G11  C0DR 2830   1.560   4.740   9.911
    58G11  C0DD 2831   1.602   4.611   9.876
    58G11  C0DC 2832   1.489   4.553   9.806
    58G11  C0DP 2833   1.368   4.635   9.814
    58G11  C0DA 2834   1.227   4.609   9.769
    58G11  C0D9 2835   1.171   4.489   9.697
    58G11  C0CR 2836   1.031   4.485   9.658
    58G11  C0C0 2837   0.948   4.598   9.681
    58G11  C0BZ 2838   0.807   4.606   9.647
    58G11  C0C1 2839   0.733   4.721   9.678
    58G11  C0C7 2840   0.598   4.723   9.655
    58G11  C0C6 2841   0.520   4.838   9.685
    58G11  C0C9 2842   0.385   4.832   9.663
    58G11  C0B8 2843   0.310   4.948   9.694
    58G11  C0B7 2844   0.174   4.952   9.686
    58G11  C0B6 2845   0.078   5.052   9.739
    58G11  C0B5 2846   0.122   5.119   9.859
    58G11  H00Z 2847   0.218   5.137   9.905
    58G11  C0B4 2848   0.005   5.133   9.940
    58G11  H010 2849  -0.007   5.172  10.040
    58G11  C0B3 2850  -0.109   5.078   9.871
    58G11  C0AP 2851  -0.201   4.979   9.906
    58G11  C0AQ 2852  -0.201   4.890   9.801
    58G11  C0AR 2853  -0.247   4.757   9.817
    58G11  C0AS 2854  -0.193   4.672   9.728
    58G11  C0AT 2855  -0.088   4.690   9.649
    58G11  C0BA 2856  -0.026   4.814   9.652
    58G11  C0AU 2857  -0.015   4.585   9.598
    58G11  C0BE 2858   0.119   4.599   9.572
    58G11  C0BI 2859   0.198   4.484   9.550
    58G11  C0BJ 2860   0.138   4.357   9.540
    58G11  C0BK 2861   0.206   4.244   9.503
    58G11  C0BW 2862   0.345   4.251   9.498
    58G11  C0BV 2863   0.410   4.373   9.525
    58G11  C0BU 2864   0.550   4.374   9.527
    58G11  C0BX 2865   0.616   4.495   9.568
    58G11  C0BT 2866   0.624   4.260   9.495
    58G11  C0CD 2867   0.762   4.267   9.508
    58G11  C0CB 2868   0.829   4.375   9.564
    58G11  C0CE 2869   0.836   4.158   9.473
    58G11  C0CK 2870   0.773   4.044   9.414
    58G11  C0BS 2871   0.631   4.035   9.410
    58G11  C0CJ 2872   0.566   3.919   9.358
    58G11  C0BP 2873   0.426   3.910   9.374
    58G11  C0CI 2874   0.355   3.799   9.331
    58G11  C0CH 2875   0.223   3.784   9.373
    58G11  H012 2876   0.179   3.687   9.352
    58G11  C0BN 2877   0.148   3.889   9.432
    58G11  C0CG 2878   0.017   3.874   9.485
    58G11  C0CF 2879  -0.056   3.751   9.480
    58G11  H013 2880  -0.019   3.668   9.422
    58G11  O00G 2881  -0.178   3.732   9.545
    58G11  C0AA 2882  -0.220   3.838   9.620
    58G11  C0A9 2883  -0.333   3.806   9.693
    58G11  H00U 2884  -0.370   3.705   9.703
    58G11  C0A8 2885  -0.378   3.903   9.779
    58G11  H00V 2886  -0.455   3.867   9.845
    58G11  C0A7 2887  -0.330   4.037   9.790
    58G11  C0A6 2888  -0.224   4.072   9.690
    58G11  C0A5 2889  -0.173   4.196   9.668
    58G11  C0A4 2890  -0.233   4.316   9.731
    58G11  C0A3 2891  -0.334   4.357   9.822
    58G11  C0A2 2892  -0.386   4.264   9.912
    58G11  C0A1 2893  -0.458   4.299  10.022
    58G11  C0A0 2894  -0.492   4.423  10.093
    58G11  C09Z 2895  -0.578   4.409  10.202
    58G11  C09Y 2896  -0.613   4.515  10.287
    58G11  H00Y 2897  -0.663   4.502  10.381
    58G11  C09X 2898  -0.557   4.640  10.262
    58G11  C09W 2899  -0.584   4.742  10.363
    58G11  H00R 2900  -0.649   4.713  10.444
    58G11  C0AX 2901  -0.539   4.872  10.341
    58G11  H00S 2902  -0.572   4.946  10.412
    58G11  C0AW 2903  -0.444   4.895  10.234
    58G11  H00T 2904  -0.416   4.999  10.224
    58G11  C0AN 2905  -0.417   4.798  10.134
    58G11  C0AO 2906  -0.349   4.825  10.022
    58G11  C0AM 2907  -0.471   4.666  10.150
    58G11  C0B2 2908  -0.637   4.289  10.246
    58G11  O00D 2909  -0.710   4.279  10.346
    58G11  C0B1 2910  -0.603   4.171  10.174
    58G11  H00W 2911  -0.648   4.076  10.198
    58G11  C0AL 2912  -0.444   4.555  10.060
    58G11  C0AK 2913  -0.369   4.594   9.946
    58G11  C0B0 2914  -0.511   4.181  10.067
    58G11  C0AZ 2915  -0.469   4.068   9.997
    58G11  H00X 2916  -0.495   3.967  10.028
    58G11  C0AJ 2917  -0.327   4.499   9.844
    58G11  C0AH 2918  -0.187   4.440   9.679
    58G11  C0AE 2919  -0.057   4.213   9.586
    58G11  C0AD 2920   0.012   4.109   9.538
    58G11  C0AY 2921  -0.391   4.121   9.889
    58G11  C0AB 2922  -0.167   3.969   9.615
    58G11  C0AC 2923  -0.047   3.981   9.546
    58G11  C0BM 2924   0.212   4.013   9.441
    58G11  C0CM 2925   0.423   3.712   9.241
    58G11  C09M 2926   0.566   3.693   9.256
    58G11  C098 2927   0.616   3.562   9.222
    58G11  C08R 2928   0.752   3.515   9.209
    58G11  C08Q 2929   0.762   3.374   9.175
    58G11  C08P 2930   0.857   3.285   9.105
    58G11  C08Y 2931   0.802   3.172   9.038
    58G11  C097 2932   0.665   3.166   9.020
    58G11  C096 2933   0.633   3.124   8.891
    58G11  C090 2934   0.754   3.051   8.847
    58G11  C095 2935   0.782   3.006   8.718
    58G11  C094 2936   0.897   2.933   8.679
    58G11  C08J 2937   1.028   2.928   8.742
    58G11  C08I 2938   1.124   2.913   8.639
    58G11  C08H 2939   1.255   2.960   8.689
    58G11  C08G 2940   1.221   3.045   8.809
    58G11  C08F 2941   1.292   3.123   8.909
    58G11  C08E 2942   1.435   3.115   8.936
    58G11  C059 2943   1.519   3.016   8.878
    58G11  C058 2944   1.657   3.013   8.916
    58G11  C057 2945   1.755   2.934   8.855
    58G11  C056 2946   1.707   2.833   8.766
    58G11  C055 2947   1.581   2.812   8.748
    58G11  C054 2948   1.556   2.741   8.631
    58G11  C053 2949   1.685   2.720   8.566
    58G11  C052 2950   1.722   2.672   8.431
    58G11  C051 2951   1.623   2.632   8.335
    58G11  C05U 2952   1.481   2.650   8.350
    58G11  C05T 2953   1.393   2.717   8.451
    58G11  C06K 2954   1.260   2.692   8.404
    58G11  H00J 2955   1.175   2.727   8.461
    58G11  C06L 2956   1.262   2.614   8.278
    58G11  H00I 2957   1.179   2.585   8.215
    58G11  C05V 2958   1.400   2.588   8.249
    58G11  C06J 2959   1.449   2.535   8.131
    58G11  H00K 2960   1.387   2.490   8.055
    58G11  C05X 2961   1.589   2.536   8.105
    58G11  C06I 2962   1.647   2.480   7.987
    58G11  H00L 2963   1.586   2.446   7.904
    58G11  C04Z 2964   1.787   2.486   7.957
    58G11  C06H 2965   1.838   2.437   7.833
    58G11  H00H 2966   1.775   2.388   7.760
    58G11  C04Y 2967   1.976   2.446   7.811
    58G11  C06G 2968   2.026   2.392   7.689
    58G11  O009 2969   1.954   2.339   7.598
    58G11  O008 2970   2.163   2.404   7.663
    58G11  C04P 2971   2.248   2.459   7.745
    58G11  C04J 2972   2.392   2.484   7.720
    58G11  C04Q 2973   2.466   2.464   7.605
    58G11  H00E 2974   2.415   2.418   7.521
    58G11  C04M 2975   2.599   2.507   7.584
    58G11  C04R 2976   2.663   2.499   7.463
    58G11  H00F 2977   2.612   2.447   7.383
    58G11  C04S 2978   2.786   2.550   7.447
    58G11  H00G 2979   2.833   2.563   7.350
    58G11  O007 2980   2.863   2.607   7.551
    58G11  C03V 2981   2.801   2.609   7.673
    58G11  C03U 2982   2.861   2.676   7.774
    58G11  O006 2983   2.992   2.710   7.751
    58G11  C03F 2984   3.051   2.784   7.843
    58G11  C03E 2985   2.995   2.811   7.972
    58G11  C03D 2986   2.868   2.770   8.001
    58G11  C03C 2987   2.811   2.806   8.124
    58G11  C03B 2988   2.895   2.880   8.206
    58G11  C03A 2989   2.836   2.914   8.334
    58G11  C039 2990   2.702   2.884   8.371
    58G11  C038 2991   2.689   2.945   8.501
    58G11  C037 2992   2.813   3.011   8.527
    58G11  C036 2993   2.842   3.069   8.646
    58G11  C02R 2994   2.954   3.138   8.687
    58G11  C035 2995   2.912   3.194   8.808
    58G11  C03R 2996   2.787   3.156   8.845
    58G11  C03S 2997   2.702   3.240   8.921
    58G11  C049 2998   2.567   3.201   8.920
    58G11  C048 2999   2.528   3.103   8.824
    58G11  C03P 3000   2.612   3.045   8.717
    58G11  C047 3001   2.387   3.084   8.830
    58G11  C046 3002   2.313   3.001   8.749
    58G11  C045 3003   2.346   2.914   8.643
    58G11  C03T 3004   2.467   2.897   8.573
    58G11  C044 3005   2.434   2.814   8.461
    58G11  C043 3006   2.312   2.752   8.490
    58G11  C042 3007   2.248   2.713   8.374
    58G11  C041 3008   2.367   2.707   8.283
    58G11  C040 3009   2.364   2.645   8.160
    58G11  C03Z 3010   2.472   2.628   8.065
    58G11  C04H 3011   2.416   2.557   7.958
    58G11  C04G 3012   2.278   2.547   7.974
    58G11  C03N 3013   2.612   2.677   8.049
    58G11  C03Y 3014   2.670   2.651   7.926
    58G11  C03X 3015   2.609   2.578   7.819
    58G11  C04F 3016   2.241   2.593   8.095
    58G11  C04E 3017   2.096   2.594   8.123
    58G11  C04O 3018   2.011   2.543   8.024
    58G11  C04D 3019   2.033   2.636   8.242
    58G11  C04V 3020   1.899   2.616   8.268
    58G11  C04W 3021   1.810   2.573   8.173
    58G11  C04C 3022   2.102   2.682   8.359
    58G11  C04L 3023   1.998   2.697   8.452
    58G11  C04U 3024   2.013   2.770   8.573
    58G11  C05Q 3025   1.914   2.803   8.662
    58G11  C05P 3026   1.962   2.892   8.759
    58G11  C04T 3027   2.088   2.921   8.731
    58G11  C04B 3028   2.127   2.840   8.625
    58G11  C03M 3029   2.488   2.778   8.332
    58G11  C04A 3030   2.256   2.829   8.588
    58G11  C05H 3031   2.183   3.005   8.793
    58G11  C05G 3032   2.174   3.093   8.903
    58G11  C05F 3033   2.066   3.104   8.990
    58G11  C05E 3034   2.043   3.213   9.077
    58G11  C05L 3035   2.122   3.318   9.135
    58G11  C05K 3036   2.264   3.326   9.116
    58G11  C05J 3037   2.348   3.253   9.025
    58G11  C066 3038   2.324   3.433   9.193
    58G11  C065 3039   2.246   3.526   9.270
    58G11  C064 3040   2.108   3.516   9.275
    58G11  C06N 3041   2.308   3.636   9.335
    58G11  C069 3042   2.445   3.656   9.325
    58G11  C06P 3043   2.509   3.768   9.387
    58G11  C06R 3044   2.643   3.797   9.364
    58G11  C06B 3045   2.720   3.715   9.287
    58G11  C06S 3046   2.854   3.751   9.256
    58G11  C02G 3047   2.927   3.676   9.167
    58G11  C02F 3048   3.049   3.723   9.121
    58G11  C027 3049   3.100   3.844   9.167
    58G11  C026 3050   3.215   3.895   9.113
    58G11  C00E 3051   3.258   4.024   9.140
    58G11  C00D 3052   3.374   4.070   9.086
    58G11  C00C 3053   3.407   4.201   9.114
    58G11  C00B 3054   3.338   4.285   9.197
    58G11  C015 3055   3.228   4.233   9.262
    58G11  C07F 3056   3.156   4.308   9.348
    58G11  C07E 3057   3.043   4.254   9.412
    58G11  C06W 3058   2.999   4.124   9.384
    58G11  C06V 3059   3.072   4.052   9.288
    58G11  C06X 3060   2.884   4.073   9.438
    58G11  C07B 3061   2.808   4.154   9.517
    58G11  C07C 3062   2.850   4.283   9.553
    58G11  C0FU 3063   2.778   4.367   9.638
    58G11  C0F7 3064   2.827   4.490   9.682
    58G11  C0F6 3065   2.752   4.569   9.767
    58G11  C0F8 3066   2.803   4.692   9.805
    58G11  C0F9 3067   2.729   4.769   9.895
    58G11  C0FA 3068   2.792   4.875   9.952
    58G11  C0FZ 3069   2.914   4.920   9.904
    58G11  C0G0 3070   2.982   5.031   9.961
    58G11  C0GD 3071   2.926   5.094  10.074
    58G11  C0FC 3072   2.796   5.058  10.111
    58G11  C0GH 3073   2.732   5.120  10.216
    58G11  C0EY 3074   2.599   5.091  10.249
    58G11  C0EX 3075   2.533   5.160  10.346
    58G11  C0EW 3076   2.397   5.129  10.370
    58G11  C0FR 3077   2.327   5.191  10.474
    58G11  H01D 3078   2.222   5.193  10.498
    58G11  C0FS 3079   2.400   5.265  10.568
    58G11  H01C 3080   2.345   5.310  10.650
    58G11  C0GJ 3081   2.531   5.299  10.541
    58G11  H01N 3082   2.581   5.375  10.599
    58G11  C0EV 3083   2.323   5.046  10.286
    58G11  C0FT 3084   2.189   5.017  10.311
    58G11  H01E 3085   2.128   5.063  10.387
    58G11  C0EU 3086   2.392   4.968  10.193
    58G11  C0ET 3087   2.333   4.865  10.125
    58G11  C0EI 3088   2.393   4.778  10.036
    58G11  C0F1 3089   2.528   4.809  10.016
    58G11  C0F0 3090   2.594   4.917  10.086
    58G11  C0EH 3091   2.323   4.669   9.974
    58G11  C0EG 3092   2.185   4.644   9.987
    58G11  C0EJ 3093   2.403   4.584   9.900
    58G11  C0F3 3094   2.538   4.612   9.875
    58G11  C0EK 3095   2.350   4.457   9.857
    58G11  C0EL 3096   2.207   4.431   9.870
    58G11  C0EM 3097   2.179   4.293   9.817
    58G11  C0EN 3098   2.277   4.198   9.782
    58G11  C07I 3099   2.222   4.094   9.711
    58G11  C074 3100   2.295   4.014   9.625
    58G11  C073 3101   2.224   3.913   9.561
    58G11  C072 3102   2.300   3.825   9.487
    58G11  C075 3103   2.430   4.042   9.615
    58G11  C076 3104   2.485   4.159   9.671
    58G11  C078 3105   2.610   4.201   9.637
    58G11  C07G 3106   2.502   3.959   9.532
    58G11  C070 3107   2.634   3.993   9.509
    58G11  C07Z 3108   2.082   4.099   9.706
    58G11  C077 3109   2.407   4.242   9.754
    58G11  C0EO 3110   2.442   4.370   9.794
    58G11  C0F4 3111   2.574   4.409   9.757
    58G11  C0EQ 3112   2.201   4.839  10.144
    58G11  C0FQ 3113   2.597   5.246  10.432
    58G11  C0GI 3114   2.733   5.265  10.400
    58G11  H01L 3115   2.788   5.325  10.470
    58G11  C0EZ 3116   2.529   4.996  10.177
    58G11  C0GG 3117   2.796   5.215  10.287
    58G11  C0GF 3118   2.921   5.260  10.251
    58G11  H01M 3119   2.972   5.327  10.319
    58G11  C0GE 3120   2.988   5.201  10.145
    58G11  H01K 3121   3.085   5.236  10.116
    58G11  O00J 3122   3.098   5.083   9.906
    58G11  C0GA 3123   3.145   5.024   9.795
    58G11  C0G9 3124   3.252   5.083   9.727
    58G11  H01H 3125   3.288   5.180   9.759
    58G11  C0G8 3126   3.303   5.029   9.604
    58G11  C0G7 3127   3.406   5.092   9.526
    58G11  H01I 3128   3.456   5.184   9.552
    58G11  O00I 3129   3.459   5.037   9.416
    58G11  C0G6 3130   3.414   4.912   9.382
    58G11  H01J 3131   3.467   4.880   9.294
    58G11  C02D 3132   3.328   4.832   9.466
    58G11  C02C 3133   3.286   4.701   9.436
    58G11  C017 3134   3.359   4.617   9.340
    58G11  C016 3135   3.315   4.490   9.311
    58G11  O001 3136   3.475   4.662   9.281
    58G11  C018 3137   3.540   4.598   9.181
    58G11  C009 3138   3.498   4.471   9.147
    58G11  C008 3139   3.556   4.385   9.048
    58G11  C007 3140   3.662   4.390   8.951
    58G11  C006 3141   3.737   4.505   8.929
    58G11  C005 3142   3.832   4.514   8.824
    58G11  C004 3143   3.870   4.424   8.718
    58G11  C003 3144   3.828   4.283   8.691
    58G11  C002 3145   3.886   4.214   8.574
    58G11  C00P 3146   3.843   4.082   8.539
    58G11  C00O 3147   3.898   4.012   8.431
    58G11  C00N 3148   3.853   3.886   8.396
    58G11  C010 3149   3.909   3.825   8.282
    58G11  C011 3150   3.856   3.700   8.236
    58G11  C01Q 3151   3.906   3.648   8.117
    58G11  C01U 3152   4.021   3.701   8.052
    58G11  C012 3153   4.065   3.826   8.102
    58G11  H000 3154   4.134   3.881   8.040
    58G11  C01V 3155   4.068   3.630   7.942
    58G11  H007 3156   4.147   3.668   7.878
    58G11  O005 3157   4.020   3.510   7.908
    58G11  C01W 3158   3.896   3.478   7.945
    58G11  C031 3159   3.833   3.379   7.875
    58G11  C032 3160   3.701   3.344   7.918
    58G11  H00A 3161   3.655   3.266   7.859
    58G11  C033 3162   3.646   3.402   8.035
    58G11  H00B 3163   3.552   3.368   8.076
    58G11  C01O 3164   3.722   3.486   8.120
    58G11  C01N 3165   3.683   3.524   8.251
    58G11  C01M 3166   3.576   3.463   8.332
    58G11  C01L 3167   3.472   3.345   8.341
    58G11  C01K 3168   3.408   3.362   8.469
    58G11  C01Y 3169   3.293   3.304   8.513
    58G11  C02I 3170   3.232   3.210   8.428
    58G11  C02N 3171   3.113   3.148   8.483
    58G11  C02M 3172   3.044   3.056   8.395
    58G11  C02L 3173   3.098   3.020   8.274
    58G11  C02K 3174   3.222   3.072   8.234
    58G11  C02U 3175   3.279   3.014   8.118
    58G11  C02V 3176   3.208   2.932   8.028
    58G11  C03H 3177   3.256   2.905   7.899
    58G11  H00C 3178   3.349   2.934   7.854
    58G11  C02W 3179   3.409   3.045   8.090
    58G11  C02X 3180   3.463   3.148   8.161
    58G11  C02Y 3181   3.599   3.134   8.132
    58G11  H008 3182   3.687   3.181   8.175
    58G11  C02Z 3183   3.614   3.045   8.022
    58G11  O004 3184   3.713   3.029   7.955
    58G11  O003 3185   3.496   2.989   7.999
    58G11  C02J 3186   3.294   3.174   8.306
    58G11  C01Z 3187   3.244   3.352   8.634
    58G11  C020 3188   3.302   3.460   8.700
    58G11  C01I 3189   3.418   3.516   8.654
    58G11  C01H 3190   3.473   3.636   8.688
    58G11  C00K 3191   3.564   3.697   8.617
    58G11  C01S 3192   3.621   3.641   8.502
    58G11  C014 3193   3.708   3.700   8.424
    58G11  C00J 3194   3.618   3.816   8.661
    58G11  C00I 3195   3.563   3.873   8.778
    58G11  C00H 3196   3.461   3.809   8.843
    58G11  C00G 3197   3.399   3.873   8.951
    58G11  C00S 3198   3.609   3.996   8.816
    58G11  C00T 3199   3.543   4.054   8.923
    58G11  C00U 3200   3.589   4.178   8.955
    58G11  C00R 3201   3.700   4.073   8.733
    58G11  C00L 3202   3.714   3.881   8.592
    58G11  C028 3203   3.415   3.689   8.803
    58G11  C023 3204   3.300   3.640   8.864
    58G11  C024 3205   3.241   3.704   8.973
    58G11  C021 3206   3.245   3.523   8.808
    58G11  C022 3207   3.132   3.469   8.861
    58G11  C02H 3208   3.069   3.533   8.971
    58G11  C030 3209   2.944   3.488   9.016
    58G11  C034 3210   2.886   3.379   8.960
    58G11  C02P 3211   3.078   3.355   8.805
    58G11  C02B 3212   3.136   3.290   8.689
    58G11  C01J 3213   3.476   3.460   8.541
    58G11  C01X 3214   3.418   3.232   8.264
    58G11  C01T 3215   3.564   3.523   8.458
    58G11  H009 3216   3.887   3.342   7.789
    58G11  C01P 3217   3.842   3.540   8.062
    58G11  C01R 3218   3.753   3.637   8.306
    58G11  C00Z 3219   4.008   3.887   8.212
    58G11  O000 3220   4.057   4.010   8.243
    58G11  C00M 3221   3.759   3.822   8.469
    58G11  C00Y 3222   3.994   4.075   8.351
    58G11  C013 3223   4.022   4.204   8.379
    58G11  H001 3224   4.087   4.251   8.306
    58G11  C00Q 3225   3.754   4.014   8.626
    58G11  C001 3226   3.975   4.276   8.491
    58G11  C000 3227   4.011   4.410   8.516
    58G11  H006 3228   4.081   4.446   8.442
    58G11  C00W 3229   3.743   4.207   8.768
    58G11  C01G 3230   3.958   4.485   8.621
    58G11  H005 3231   3.984   4.589   8.610
    58G11  C01C 3232   3.892   4.650   8.835
    58G11  H002 3233   3.974   4.694   8.781
    58G11  C01B 3234   3.837   4.707   8.958
    58G11  C01D 3235   3.859   4.842   9.010
    58G11  H003 3236   3.935   4.904   8.965
    58G11  C01E 3237   3.781   4.875   9.115
    58G11  H004 3238   3.807   4.970   9.159
    58G11  O002 3239   3.692   4.787   9.179
    58G11  C01A 3240   3.737   4.624   9.015
    58G11  C00V 3241   3.676   4.260   8.883
    58G11  C019 3242   3.655   4.667   9.120
    58G11  C02E 3243   3.177   4.642   9.503
    58G11  C0FX 3244   3.111   4.712   9.606
    58G11  C0FW 3245   2.994   4.662   9.666
    58G11  C0GB 3246   3.160   4.836   9.642
    58G11  C0G3 3247   3.134   4.514   9.472
    58G11  C07H 3248   3.017   4.460   9.536
    58G11  C0GC 3249   3.266   4.901   9.570
    58G11  C0G2 3250   3.094   4.904   9.748
    58G11  C0G1 3251   2.985   4.849   9.805
    58G11  C0FB 3252   2.723   4.952  10.049
    58G11  C0F2 3253   2.598   4.733   9.929
    58G11  C0FY 3254   2.926   4.733   9.759
    58G11  C0F5 3255   2.625   4.531   9.802
    58G11  C0FV 3256   2.945   4.536   9.629
    58G11  C079 3257   2.656   4.328   9.676
    58G11  C07A 3258   2.687   4.114   9.555
    58G11  C06Y 3259   2.836   3.945   9.392
    58G11  C07D 3260   2.969   4.335   9.499
    58G11  C01F 3261   3.207   4.437   9.381
    58G11  C00A 3262   3.382   4.417   9.215
    58G11  C00X 3263   3.519   4.252   9.050
    58G11  C00F 3264   3.443   4.000   8.991
    58G11  C029 3265   3.187   4.100   9.236
    58G11  C025 3266   3.286   3.824   9.015
    58G11  C06U 3267   3.027   3.922   9.255
    58G11  C02A 3268   3.120   3.651   9.024
    58G11  C05Y 3269   2.869   3.563   9.111
    58G11  C05Z 3270   2.735   3.526   9.140
    58G11  C060 3271   2.674   3.417   9.072
    58G11  C062 3272   2.540   3.381   9.088
    58G11  C06T 3273   2.905   3.872   9.299
    58G11  C06A 3274   2.657   3.604   9.227
    58G11  C06Z 3275   2.702   3.913   9.422
    58G11  C06Q 3276   2.438   3.849   9.472
    58G11  C068 3277   2.521   3.571   9.243
    58G11  C067 3278   2.460   3.461   9.177
    58G11  C063 3279   2.043   3.410   9.211
    58G11  C06C 3280   1.902   3.407   9.213
    58G11  C06D 3281   1.828   3.309   9.154
    58G11  C06E 3282   1.689   3.299   9.134
    58G11  C07Q 3283   1.621   3.406   9.187
    58G11  C07P 3284   1.688   3.507   9.255
    58G11  C07T 3285   1.619   3.615   9.317
    58G11  C07U 3286   1.689   3.711   9.392
    58G11  C07V 3287   1.613   3.815   9.441
    58G11  C084 3288   1.474   3.820   9.420
    58G11  C08C 3289   1.412   3.720   9.343
    58G11  C08B 3290   1.279   3.731   9.313
    58G11  C08A 3291   1.220   3.632   9.232
    58G11  C089 3292   1.282   3.522   9.188
    58G11  C088 3293   1.207   3.421   9.118
    58G11  C087 3294   1.274   3.314   9.068
    58G11  C086 3295   1.414   3.309   9.087
    58G11  C08X 3296   1.062   3.418   9.124
    58G11  C08T 3297   0.998   3.534   9.181
    58G11  C08D 3298   1.415   3.517   9.221
    58G11  C08U 3299   1.079   3.641   9.220
    58G11  C08V 3300   1.007   3.746   9.266
    58G11  C0CY 3301   1.066   3.842   9.349
    58G11  C0CX 3302   0.984   3.944   9.390
    58G11  C0CW 3303   1.044   4.049   9.449
    58G11  C0CV 3304   1.184   4.050   9.472
    58G11  C0D4 3305   1.265   3.941   9.428
    58G11  C0CU 3306   1.244   4.157   9.534
    58G11  C0CT 3307   1.176   4.272   9.571
    58G11  C0CS 3308   1.039   4.274   9.554
    58G11  C0D6 3309   1.380   4.144   9.559
    58G11  C0EC 3310   1.457   4.036   9.523
    58G11  C07X 3311   1.590   4.029   9.549
    58G11  C0DL 3312   1.441   4.241   9.631
    58G11  C0DK 3313   1.576   4.229   9.662
    58G11  C0DN 3314   1.601   4.337   9.727
    58G11  C0D8 3315   1.383   4.360   9.676
    58G11  C08W 3316   0.874   3.720   9.257
    58G11  C0CQ 3317   0.779   3.820   9.315
    58G11  C093 3318   1.203   3.836   9.364
    58G11  C092 3319   1.398   3.935   9.457
    58G11  C085 3320   1.482   3.613   9.299
    58G11  C07S 3321   1.481   3.409   9.169
    58G11  C06F 3322   1.625   3.201   9.062
    58G11  C07O 3323   1.827   3.508   9.270
    58G11  C07N 3324   1.896   3.607   9.343
    58G11  C05D 3325   1.903   3.219   9.089
    58G11  C05C 3326   1.843   3.118   9.025
    58G11  C05N 3327   1.937   3.045   8.960
    58G11  C05M 3328   2.298   3.150   8.931
    58G11  C05I 3329   2.485   3.278   9.011
    58G11  C061 3330   2.756   3.342   8.990
    58G11  C02Q 3331   2.961   3.314   8.865
    58G11  C02O 3332   3.071   3.186   8.616
    58G11  C03Q 3333   2.744   3.079   8.743
    58G11  C03O 3334   2.586   2.960   8.602
    58G11  C03L 3335   2.621   2.807   8.283
    58G11  C02S 3336   2.910   3.003   8.427
    58G11  C02T 3337   3.024   2.926   8.186
    58G11  C03K 3338   2.675   2.763   8.148
    58G11  C03I 3339   3.073   2.884   8.061
    58G11  C03G 3340   3.178   2.825   7.812
    58G11  H00D 3341   3.217   2.810   7.713
    58G11  C03J 3342   2.801   2.699   7.902
    58G11  C03W 3343   2.669   2.565   7.695
    58G11  C04I 3344   2.475   2.535   7.830
    58G11  C04K 3345   2.198   2.498   7.873
    58G11  C04N 3346   2.062   2.492   7.906
    58G11  C04X 3347   1.868   2.540   8.051
    58G11  C050 3348   1.671   2.580   8.208
    58G11  C05W 3349   1.863   2.664   8.393
    58G11  C05S 3350   1.436   2.785   8.575
    58G11  C05R 3351   1.780   2.773   8.661
    58G11  C05O 3352   1.892   2.951   8.865
    58G11  C05B 3353   1.703   3.109   8.999
    58G11  C05A 3354   1.489   2.914   8.774
    58G11  C07R 3355   1.490   3.208   9.030
    58G11  C08N 3356   1.210   3.219   8.983
    58G11  C08M 3357   1.067   3.214   8.988
    58G11  C08L 3358   1.002   3.113   8.917
    58G11  C091 3359   1.380   2.881   8.680
    58G11  C09K 3360   1.056   2.939   8.512
    58G11  H00M 3361   1.112   2.970   8.424
    58G11  C08K 3362   1.079   3.034   8.827
    58G11  C09J 3363   0.908   2.928   8.536
    58G11  C09I 3364   0.781   2.985   8.491
    58G11  C09L 3365   0.721   2.991   8.358
    58G11  H00N 3366   0.778   2.942   8.280
    58G11  C09Q 3367   0.599   3.040   8.352
    58G11  H00O 3368   0.560   3.052   8.251
    58G11  O00B 3369   0.523   3.081   8.456
    58G11  C09G 3370   0.575   3.088   8.587
    58G11  C09F 3371   0.483   3.138   8.689
    58G11  O00A 3372   0.358   3.170   8.639
    58G11  C09P 3373   0.265   3.213   8.731
    58G11  H00P 3374   0.165   3.174   8.725
    58G11  C09O 3375   0.307   3.301   8.833
    58G11  C09D 3376   0.428   3.259   8.897
    58G11  C09C 3377   0.482   3.311   9.016
    58G11  C09N 3378   0.447   3.426   9.098
    58G11  C09T 3379   0.356   3.535   9.063
    58G11  C09S 3380   0.255   3.523   8.964
    58G11  C0CP 3381   0.180   3.642   8.978
    58G11  C0CN 3382   0.231   3.730   9.070
    58G11  C0CO 3383   0.178   3.860   9.079
    58G11  H014 3384   0.217   3.940   9.140
    58G11  C0CZ 3385   0.072   3.885   8.991
    58G11  H015 3386   0.034   3.986   8.986
    58G11  C0D0 3387   0.019   3.791   8.896
    58G11  C0G5 3388  -0.080   3.818   8.792
    58G11  H01F 3389  -0.130   3.914   8.790
    58G11  C0G4 3390  -0.115   3.724   8.705
    58G11  H01G 3391  -0.195   3.740   8.634
    58G11  O00H 3392  -0.055   3.604   8.694
    58G11  C0D2 3393   0.045   3.577   8.787
    58G11  C09V 3394   0.126   3.462   8.770
    58G11  H00Q 3395   0.092   3.389   8.698
    58G11  C0D1 3396   0.082   3.663   8.887
    58G11  C09R 3397   0.229   3.426   8.859
    58G11  C09H 3398   0.705   3.032   8.603
    58G11  C09E 3399   0.511   3.166   8.825
    58G11  C09B 3400   0.590   3.255   9.077
    58G11  C08Z 3401   0.858   3.114   8.930
    58G11  C08O 3402   0.997   3.311   9.068
    58G11  C09A 3403   0.634   3.329   9.191
    58G11  C08S 3404   0.863   3.592   9.206
    58G11  C099 3405   0.544   3.443   9.196
    58G11  C09U 3406   0.342   3.656   9.133
    58G11  C0BO 3407   0.350   4.022   9.422
    58G11  C0CL 3408   0.642   3.810   9.305
    58G11  C0D3 3409   0.845   3.932   9.368
    58G11  C0D5 3410   0.974   4.161   9.493
    58G11  C0BR 3411   0.556   4.145   9.453
    58G11  C0BQ 3412   0.419   4.139   9.457
    58G11  C0BL 3413   0.140   4.127   9.488
    58G11  C0AF 3414   0.004   4.344   9.578
    58G11  C0BH 3415   0.337   4.490   9.553
    58G11  C0BG 3416   0.400   4.607   9.585
    58G11  C0BD 3417   0.185   4.720   9.605
    58G11  C0AG 3418  -0.066   4.459   9.608
    58G11  C0AI 3419  -0.243   4.545   9.742
    58G11  C0AV 3420  -0.325   4.723   9.925
    58G11  C0BB 3421  -0.104   4.922   9.706
    58G11  O00C 3422  -0.285   4.952  10.016
    58G11  C0BC 3423  -0.060   5.046   9.739
    58G11  C0B9 3424   0.112   4.834   9.634
    58G11  O00E 3425   0.378   5.063   9.726
    58G11  C0CA 3426   0.511   5.080   9.748
    58G11  O00F 3427   0.555   5.191   9.791
    58G11  C0BF 3428   0.321   4.719   9.616
    58G11  C0C5 3429   0.583   4.962   9.720
    58G11  C0C4 3430   0.726   4.962   9.741
    58G11  H011 3431   0.776   5.057   9.757
    58G11  C0C8 3432   0.539   4.611   9.595
    58G11  C0C2 3433   0.796   4.835   9.725
    58G11  C0C3 3434   0.930   4.824   9.752
    58G11  C0DY 3435   1.010   4.916   9.804
    58G11  H016 3436   0.986   5.016   9.836
    58G11  C0DX 3437   1.138   4.858   9.825
    58G11  C0DW 3438   1.232   4.924   9.911
    58G11  C0BY 3439   0.752   4.490   9.597
    58G11  C0DB 3440   1.005   4.709   9.734
    58G11  C0CC 3441   0.966   4.381   9.591
    58G11  C0D7 3442   1.243   4.375   9.649
    58G11  C0DZ 3443   1.135   4.720   9.778
    58G11  C0DM 3444   1.488   4.420   9.748
    58G11  C0DQ 3445   1.424   4.754   9.876
    58G11  C0DV 3446   1.365   4.878   9.910
    58G11  C0E0 3447   1.221   5.052   9.972
    58G11  C0FO 3448   1.416   5.141  10.240
    58G11  C0E3 3449   1.138   5.085  10.081
    58G11  H017 3450   1.038   5.045  10.093
    58G11  C0GV 3451   1.329   5.151  10.348
    58G11  C0ES 3452   1.535   5.056  10.255
    58G11  C0GQ 3453   1.509   5.021  10.625
    58G11  C0FJ 3454   1.858   4.894  10.584
    58G11  C0ED 3455   1.777   4.908  10.317
    58G11  C0ER 3456   2.128   4.913  10.240
    58G11  C0EP 3457   2.124   4.747  10.072
    58G11  C0E6 3458   1.739   4.810  10.081
    58G11  C0DE 3459   1.737   4.553   9.909
    58G11  C0EA 3460   2.121   4.529   9.929
    58G11  C0DF 3461   1.773   4.418   9.885
    58G11  C080 3462   2.059   4.225   9.781
    58G11  C0DO 3463   1.726   4.337   9.779
    58G11  C0DJ 3464   1.655   4.123   9.622
    58G11  C07K 3465   2.009   4.005   9.625
    58G11  C07W 3466   1.672   3.920   9.504
    58G11  C083 3467   1.824   3.709   9.410
    58G11  C07J 3468   2.085   3.908   9.560
    58G11  C06O 3469   2.236   3.723   9.417
    58G11  C06M 3470   2.037   3.611   9.343
    68G11  C071 3471   6.741   9.722   6.686
    68G11  C07L 3472   6.710   9.632   6.787
    68G11  C07M 3473   6.601   9.545   6.772
    68G11  C07Y 3474   6.568   9.451   6.870
    68G11  C081 3475   6.641   9.442   6.992
    68G11  C082 3476   6.602   9.344   7.087
    68G11  C0DI 3477   6.667   9.305   7.209
    68G11  C0DH 3478   6.785   9.350   7.274
    68G11  C0DG 3479   6.804   9.283   7.404
    68G11  C0E9 3480   6.913   9.235   7.487
    68G11  C0E8 3481   6.843   9.136   7.575
    68G11  C0E7 3482   6.875   9.090   7.712
    68G11  C0EB 3483   6.997   9.138   7.774
    68G11  C0EF 3484   7.033   9.128   7.914
    68G11  C0EE 3485   6.951   9.133   8.029
    68G11  C0FD 3486   6.976   9.237   8.121
    68G11  C0FE 3487   7.067   9.345   8.107
    68G11  H01B 3488   7.129   9.345   8.019
    68G11  C0FF 3489   7.083   9.447   8.199
    68G11  H01A 3490   7.158   9.522   8.182
    68G11  C0FG 3491   6.987   9.454   8.304
    68G11  H018 3492   6.999   9.537   8.372
    68G11  C0FH 3493   6.899   9.345   8.331
    68G11  C0FI 3494   6.805   9.333   8.437
    68G11  H019 3495   6.804   9.419   8.502
    68G11  O00K 3496   6.714   9.235   8.456
    68G11  C0FL 3497   6.712   9.129   8.371
    68G11  C0FK 3498   6.801   9.130   8.252
    68G11  C0FM 3499   6.779   9.023   8.157
    68G11  C0FN 3500   6.693   8.914   8.186
    68G11  C0FP 3501   6.616   8.916   8.305
    68G11  C0GO 3502   6.523   8.822   8.333
    68G11  C0GN 3503   6.421   8.832   8.423
    68G11  C0GR 3504   6.436   8.941   8.514
    68G11  C0GS 3505   6.337   8.960   8.619
    68G11  H01Q 3506   6.347   9.036   8.695
    68G11  C0GT 3507   6.229   8.867   8.634
    68G11  H01O 3508   6.164   8.876   8.720
    68G11  C0GU 3509   6.216   8.770   8.539
    68G11  H01P 3510   6.128   8.708   8.545
    68G11  O00L 3511   6.542   9.023   8.508
    68G11  C0GM 3512   6.309   8.746   8.430
    68G11  C0GL 3513   6.294   8.652   8.323
    68G11  H01R 3514   6.198   8.607   8.303
    68G11  C0GK 3515   6.401   8.638   8.232
    68G11  C0GP 3516   6.410   8.587   8.097
    68G11  C0E2 3517   6.546   8.602   8.052
    68G11  C0E1 3518   6.536   8.597   7.911
    68G11  C0DU 3519   6.574   8.704   7.825
    68G11  C0DT 3520   6.679   8.801   7.840
    68G11  C0E4 3521   6.722   8.846   7.959
    68G11  C0E5 3522   6.788   8.964   7.929
    68G11  C0DS 3523   6.696   8.897   7.742
    68G11  C0DR 3524   6.627   8.889   7.624
    68G11  C0DD 3525   6.625   8.975   7.518
    68G11  C0DC 3526   6.518   8.927   7.425
    68G11  C0DP 3527   6.452   8.810   7.476
    68G11  C0DA 3528   6.347   8.721   7.414
    68G11  C0D9 3529   6.279   8.726   7.274
    68G11  C0CR 3530   6.184   8.622   7.231
    68G11  C0C0 3531   6.149   8.518   7.313
    68G11  C0BZ 3532   6.055   8.418   7.288
    68G11  C0C1 3533   6.006   8.335   7.391
    68G11  C0C7 3534   5.898   8.246   7.361
    68G11  C0C6 3535   5.841   8.170   7.466
    68G11  C0C9 3536   5.732   8.090   7.445
    68G11  C0B8 3537   5.678   8.008   7.548
    68G11  C0B7 3538   5.551   7.948   7.540
    68G11  C0B6 3539   5.465   7.874   7.635
    68G11  C0B5 3540   5.506   7.749   7.672
    68G11  H00Z 3541   5.604   7.704   7.676
    68G11  C0B4 3542   5.384   7.671   7.685
    68G11  H010 3543   5.379   7.564   7.699
    68G11  C0B3 3544   5.265   7.744   7.664
    68G11  C0AP 3545   5.152   7.714   7.570
    68G11  C0AQ 3546   5.167   7.817   7.480
    68G11  C0AR 3547   5.119   7.796   7.350
    68G11  C0AS 3548   5.173   7.885   7.263
    68G11  C0AT 3549   5.285   7.958   7.282
    68G11  C0BA 3550   5.348   7.952   7.403
    68G11  C0AU 3551   5.350   8.015   7.178
    68G11  C0BE 3552   5.472   8.068   7.190
    68G11  C0BI 3553   5.533   8.127   7.081
    68G11  C0BJ 3554   5.469   8.130   6.960
    68G11  C0BK 3555   5.527   8.200   6.854
    68G11  C0BW 3556   5.638   8.279   6.877
    68G11  C0BV 3557   5.709   8.270   6.998
    68G11  C0BU 3558   5.822   8.348   7.017
    68G11  C0BX 3559   5.893   8.335   7.134
    68G11  C0BT 3560   5.858   8.436   6.921
    68G11  C0CD 3561   5.961   8.528   6.950
    68G11  C0CB 3562   6.032   8.522   7.071
    68G11  C0CE 3563   5.985   8.626   6.860
    68G11  C0CK 3564   5.916   8.631   6.734
    68G11  C0BS 3565   5.807   8.549   6.706
    68G11  C0CJ 3566   5.753   8.544   6.575
    68G11  C0BP 3567   5.656   8.449   6.551
    68G11  C0CI 3568   5.594   8.447   6.426
    68G11  C0CH 3569   5.503   8.340   6.407
    68G11  H012 3570   5.462   8.331   6.308
    68G11  C0BN 3571   5.453   8.262   6.507
    68G11  C0CG 3572   5.346   8.172   6.483
    68G11  C0CF 3573   5.284   8.162   6.352
    68G11  H013 3574   5.296   8.234   6.273
    68G11  O00G 3575   5.185   8.072   6.324
    68G11  C0AA 3576   5.143   7.996   6.430
    68G11  C0A9 3577   5.031   7.922   6.402
    68G11  H00U 3578   4.996   7.916   6.300
    68G11  C0A8 3579   4.971   7.844   6.497
    68G11  H00V 3580   4.888   7.789   6.453
    68G11  C0A7 3581   5.011   7.840   6.631
    68G11  C0A6 3582   5.126   7.931   6.664
    68G11  C0A5 3583   5.181   7.948   6.793
    68G11  C0A4 3584   5.121   7.892   6.913
    68G11  C0A3 3585   5.023   7.796   6.951
    68G11  C0A2 3586   4.944   7.729   6.857
    68G11  C0A1 3587   4.856   7.623   6.904
    68G11  C0A0 3588   4.813   7.561   7.036
    68G11  C09Z 3589   4.711   7.465   7.021
    68G11  C09Y 3590   4.660   7.400   7.138
    68G11  H00Y 3591   4.575   7.335   7.127
    68G11  C09X 3592   4.714   7.430   7.263
    68G11  C09W 3593   4.643   7.374   7.367
    68G11  H00R 3594   4.548   7.324   7.364
    68G11  C0AX 3595   4.700   7.384   7.494
    68G11  H00S 3596   4.655   7.325   7.572
    68G11  C0AW 3597   4.815   7.462   7.512
    68G11  H00T 3598   4.858   7.476   7.610
    68G11  C0AN 3599   4.874   7.536   7.406
    68G11  C0AO 3600   4.989   7.615   7.424
    68G11  C0AM 3601   4.826   7.518   7.279
    68G11  C0B2 3602   4.642   7.422   6.901
    68G11  O00D 3603   4.553   7.340   6.895
    68G11  C0B1 3604   4.688   7.484   6.777
    68G11  H00W 3605   4.645   7.460   6.681
    68G11  C0AL 3606   4.869   7.591   7.163
    68G11  C0AK 3607   4.966   7.693   7.189
    68G11  C0B0 3608   4.795   7.573   6.787
    68G11  C0AZ 3609   4.842   7.654   6.673
    68G11  H00X 3610   4.809   7.627   6.574
    68G11  C0AJ 3611   5.023   7.778   7.091
    68G11  C0AH 3612   5.176   7.939   7.032
    68G11  C0AE 3613   5.292   8.038   6.818
    68G11  C0AD 3614   5.351   8.110   6.717
    68G11  C0AY 3615   4.935   7.752   6.718
    68G11  C0AB 3616   5.189   8.009   6.563
    68G11  C0AC 3617   5.295   8.095   6.588
    68G11  C0BM 3618   5.511   8.270   6.633
    68G11  C0CM 3619   5.619   8.551   6.330
    68G11  C09M 3620   5.734   8.622   6.335
    68G11  C098 3621   5.794   8.669   6.216
    68G11  C08R 3622   5.882   8.779   6.189
    68G11  C08Q 3623   5.910   8.798   6.055
    68G11  C08P 3624   5.949   8.910   5.972
    68G11  C08Y 3625   5.911   8.899   5.836
    68G11  C097 3626   5.824   8.798   5.795
    68G11  C096 3627   5.736   8.849   5.699
    68G11  C090 3628   5.803   8.963   5.649
    68G11  C095 3629   5.757   9.047   5.552
    68G11  C094 3630   5.834   9.155   5.503
    68G11  C08J 3631   5.966   9.211   5.540
    68G11  C08I 3632   5.967   9.345   5.493
    68G11  C08H 3633   6.062   9.412   5.578
    68G11  C08G 3634   6.064   9.343   5.706
    68G11  C08F 3635   6.101   9.373   5.842
    68G11  C08E 3636   6.166   9.493   5.877
    68G11  C059 3637   6.192   9.604   5.791
    68G11  C058 3638   6.265   9.718   5.836
    68G11  C057 3639   6.321   9.821   5.760
    68G11  C056 3640   6.286   9.815   5.623
    68G11  C055 3641   6.199   9.729   5.571
    68G11  C054 3642   6.213   9.719   5.426
    68G11  C053 3643   6.328   9.799   5.397
    68G11  C052 3644   6.407   9.800   5.274
    68G11  C051 3645   6.375   9.711   5.165
    68G11  C05U 3646   6.275   9.603   5.162
    68G11  C05T 3647   6.203   9.531   5.265
    68G11  C06K 3648   6.112   9.444   5.200
    68G11  H00J 3649   6.039   9.389   5.256
    68G11  C06L 3650   6.132   9.454   5.061
    68G11  H00I 3651   6.081   9.397   4.984
    68G11  C05V 3652   6.237   9.549   5.036
    68G11  C06J 3653   6.295   9.577   4.918
    68G11  H00K 3654   6.255   9.524   4.832
    68G11  C05X 3655   6.406   9.660   4.922
    68G11  C06I 3656   6.479   9.689   4.802
    68G11  H00L 3657   6.453   9.636   4.712
    68G11  C04Z 3658   6.590   9.775   4.801
    68G11  C06H 3659   6.680   9.780   4.687
    68G11  H00H 3660   6.674   9.722   4.597
    68G11  C04Y 3661   6.788   9.873   4.688
    68G11  C06G 3662   6.873   9.888   4.568
    68G11  O009 3663   6.862   9.825   4.460
    68G11  O008 3664   6.966   9.990   4.566
    68G11  C04P 3665   6.992  10.066   4.678
    68G11  C04J 3666   7.106  10.155   4.687
    68G11  C04Q 3667   7.200  10.196   4.584
    68G11  H00E 3668   7.181  10.153   4.487
    68G11  C04M 3669   7.314  10.271   4.610
    68G11  C04R 3670   7.424  10.294   4.519
    68G11  H00F 3671   7.431  10.238   4.427
    68G11  C04S 3672   7.521  10.380   4.552
    68G11  H00G 3673   7.600  10.391   4.480
    68G11  O007 3674   7.531  10.450   4.668
    68G11  C03V 3675   7.432  10.422   4.761
    68G11  C03U 3676   7.443  10.482   4.879
    68G11  O006 3677   7.549  10.564   4.897
    68G11  C03F 3678   7.574  10.615   5.022
    68G11  C03E 3679   7.504  10.570   5.139
    68G11  C03D 3680   7.392  10.488   5.124
    68G11  C03C 3681   7.314  10.459   5.234
    68G11  C03B 3682   7.361  10.504   5.353
    68G11  C03A 3683   7.291  10.472   5.469
    68G11  C039 3684   7.176  10.390   5.462
    68G11  C038 3685   7.139  10.381   5.606
    68G11  C037 3686   7.242  10.447   5.677
    68G11  C036 3687   7.234  10.467   5.806
    68G11  C02R 3688   7.327  10.523   5.893
    68G11  C035 3689   7.271  10.495   6.019
    68G11  C03R 3690   7.152  10.425   6.010
    68G11  C03S 3691   7.100  10.340   6.110
    68G11  C049 3692   6.997  10.255   6.070
    68G11  C048 3693   6.969  10.253   5.931
    68G11  C03P 3694   7.043  10.319   5.824
    68G11  C047 3695   6.861  10.176   5.907
    68G11  C046 3696   6.787  10.163   5.788
    68G11  C045 3697   6.814  10.204   5.655
    68G11  C03T 3698   6.929  10.269   5.610
    68G11  C044 3699   6.915  10.263   5.465
    68G11  C043 3700   6.785  10.229   5.433
    68G11  C042 3701   6.783  10.168   5.303
    68G11  C041 3702   6.913  10.203   5.250
    68G11  C040 3703   6.954  10.173   5.120
    68G11  C03Z 3704   7.063  10.238   5.055
    68G11  C04H 3705   7.051  10.196   4.920
    68G11  C04G 3706   6.940  10.113   4.907
    68G11  C03N 3707   7.178  10.323   5.089
    68G11  C03Y 3708   7.255  10.359   4.974
    68G11  C03X 3709   7.239  10.305   4.840
    68G11  C04F 3710   6.871  10.100   5.025
    68G11  C04E 3711   6.752  10.024   5.027
    68G11  C04O 3712   6.728   9.943   4.913
    68G11  C04D 3713   6.680   9.997   5.142
    68G11  C04V 3714   6.574   9.904   5.141
    68G11  C04W 3715   6.546   9.815   5.028
    68G11  C04C 3716   6.677  10.067   5.265
    68G11  C04L 3717   6.568  10.002   5.344
    68G11  C04U 3718   6.527  10.040   5.477
    68G11  C05Q 3719   6.437   9.969   5.552
    68G11  C05P 3720   6.476   9.978   5.689
    68G11  C04T 3721   6.585  10.064   5.695
    68G11  C04B 3722   6.617  10.099   5.566
    68G11  C03M 3723   6.996  10.276   5.345
    68G11  C04A 3724   6.731  10.171   5.544
    68G11  C05H 3725   6.669  10.095   5.806
    68G11  C05G 3726   6.675  10.043   5.940
    68G11  C05F 3727   6.579   9.965   5.999
    68G11  C05E 3728   6.588   9.900   6.124
    68G11  C05L 3729   6.676   9.903   6.235
    68G11  C05K 3730   6.780   9.995   6.248
    68G11  C05J 3731   6.837  10.084   6.149
    68G11  C066 3732   6.852   9.995   6.372
    68G11  C065 3733   6.816   9.898   6.472
    68G11  C064 3734   6.703   9.813   6.459
    68G11  C06N 3735   6.888   9.894   6.590
    68G11  C069 3736   7.008   9.963   6.601
    68G11  C06P 3737   7.096   9.936   6.706
    68G11  C06R 3738   7.224  10.001   6.717
    68G11  C06B 3739   7.256  10.093   6.625
    68G11  C06S 3740   7.381  10.157   6.635
    68G11  C02G 3741   7.410  10.261   6.549
    68G11  C02F 3742   7.538  10.320   6.547
    68G11  C027 3743   7.631  10.265   6.631
    68G11  C026 3744   7.763  10.310   6.625
    68G11  C00E 3745   7.863  10.249   6.704
    68G11  C00D 3746   7.993  10.289   6.694
    68G11  C00C 3747   8.089  10.221   6.764
    68G11  C00B 3748   8.071  10.113   6.847
    68G11  C015 3749   7.934  10.084   6.869
    68G11  C07F 3750   7.899   9.987   6.961
    68G11  C07E 3751   7.767   9.956   6.985
    68G11  C06W 3752   7.667  10.007   6.896
    68G11  C06V 3753   7.699  10.104   6.799
    68G11  C06X 3754   7.537   9.962   6.905
    68G11  C07B 3755   7.504   9.873   7.004
    68G11  C07C 3756   7.600   9.817   7.090
    68G11  C0FU 3757   7.569   9.713   7.177
    68G11  C0F7 3758   7.668   9.654   7.252
    68G11  C0F6 3759   7.632   9.557   7.347
    68G11  C0F8 3760   7.728   9.492   7.422
    68G11  C0F9 3761   7.689   9.407   7.525
    68G11  C0FA 3762   7.785   9.347   7.603
    68G11  C0FZ 3763   7.917   9.385   7.581
    68G11  C0G0 3764   8.019   9.324   7.660
    68G11  C0GD 3765   7.984   9.241   7.769
    68G11  C0FC 3766   7.847   9.215   7.797
    68G11  C0GH 3767   7.813   9.141   7.911
    68G11  C0EY 3768   7.678   9.135   7.943
    68G11  C0EX 3769   7.641   9.068   8.059
    68G11  C0EW 3770   7.506   9.050   8.090
    68G11  C0FR 3771   7.466   8.990   8.209
    68G11  H01D 3772   7.360   8.979   8.229
    68G11  C0FS 3773   7.560   8.953   8.303
    68G11  H01C 3774   7.531   8.922   8.403
    68G11  C0GJ 3775   7.691   8.963   8.270
    68G11  H01N 3776   7.759   8.927   8.346
    68G11  C0EV 3777   7.407   9.093   8.003
    68G11  C0FT 3778   7.267   9.076   8.027
    68G11  H01E 3779   7.216   9.037   8.114
    68G11  C0EU 3780   7.448   9.155   7.881
    68G11  C0ET 3781   7.361   9.186   7.775
    68G11  C0EI 3782   7.387   9.258   7.661
    68G11  C0F1 3783   7.523   9.291   7.649
    68G11  C0F0 3784   7.617   9.251   7.742
    68G11  C0EH 3785   7.285   9.297   7.568
    68G11  C0EG 3786   7.149   9.249   7.582
    68G11  C0EJ 3787   7.322   9.383   7.467
    68G11  C0F3 3788   7.460   9.425   7.456
    68G11  C0EK 3789   7.230   9.425   7.375
    68G11  C0EL 3790   7.098   9.374   7.375
    68G11  C0EM 3791   7.017   9.426   7.261
    68G11  C0EN 3792   7.066   9.535   7.189
    68G11  C07I 3793   6.974   9.576   7.094
    68G11  C074 3794   7.002   9.670   7.000
    68G11  C073 3795   6.905   9.697   6.903
    68G11  C072 3796   6.942   9.784   6.802
    68G11  C075 3797   7.120   9.726   7.007
    68G11  C076 3798   7.218   9.681   7.098
    68G11  C078 3799   7.343   9.735   7.101
    68G11  C07G 3800   7.157   9.813   6.913
    68G11  C070 3801   7.280   9.872   6.912
    68G11  C07Z 3802   6.858   9.501   7.097
    68G11  C077 3803   7.191   9.588   7.197
    68G11  C0EO 3804   7.273   9.528   7.287
    68G11  C0F4 3805   7.402   9.581   7.284
    68G11  C0EQ 3806   7.223   9.165   7.801
    68G11  C0FQ 3807   7.737   9.024   8.149
    68G11  C0GI 3808   7.869   9.033   8.114
    68G11  H01L 3809   7.943   8.992   8.181
    68G11  C0EZ 3810   7.579   9.180   7.856
    68G11  C0GG 3811   7.914   9.087   8.000
    68G11  C0GF 3812   8.051   9.110   7.968
    68G11  H01M 3813   8.127   9.074   8.036
    68G11  C0GE 3814   8.077   9.189   7.853
    68G11  H01K 3815   8.180   9.209   7.826
    68G11  O00J 3816   8.151   9.353   7.633
    68G11  C0GA 3817   8.182   9.451   7.542
    68G11  C0G9 3818   8.316   9.494   7.536
    68G11  H01H 3819   8.392   9.451   7.599
    68G11  C0G8 3820   8.358   9.586   7.441
    68G11  C0G7 3821   8.496   9.619   7.418
    68G11  H01I 3822   8.570   9.556   7.465
    68G11  O00I 3823   8.536   9.727   7.348
    68G11  C0G6 3824   8.446   9.755   7.251
    68G11  H01J 3825   8.488   9.824   7.179
    68G11  C02D 3826   8.304   9.721   7.252
    68G11  C02C 3827   8.205   9.782   7.171
    68G11  C017 3828   8.241   9.876   7.069
    68G11  C016 3829   8.137   9.946   6.999
    68G11  O001 3830   8.370   9.896   7.020
    68G11  C018 3831   8.406  10.011   6.954
    68G11  C009 3832   8.309  10.079   6.879
    68G11  C008 3833   8.334  10.189   6.786
    68G11  C007 3834   8.448  10.252   6.724
    68G11  C006 3835   8.577  10.244   6.775
    68G11  C005 3836   8.683  10.328   6.735
    68G11  C004 3837   8.691  10.436   6.636
    68G11  C003 3838   8.587  10.488   6.545
    68G11  C002 3839   8.618  10.586   6.444
    68G11  C00P 3840   8.527  10.627   6.349
    68G11  C00O 3841   8.565  10.697   6.234
    68G11  C00N 3842   8.468  10.738   6.136
    68G11  C010 3843   8.509  10.796   6.017
    68G11  C011 3844   8.419  10.823   5.912
    68G11  C01Q 3845   8.464  10.870   5.789
    68G11  C01U 3846   8.597  10.895   5.764
    68G11  C012 3847   8.682  10.861   5.874
    68G11  H000 3848   8.789  10.875   5.862
    68G11  C01V 3849   8.638  10.926   5.632
    68G11  H007 3850   8.740  10.923   5.596
    68G11  O005 3851   8.547  10.954   5.532
    68G11  C01W 3852   8.412  10.949   5.566
    68G11  C031 3853   8.318  10.994   5.473
    68G11  C032 3854   8.183  10.990   5.499
    68G11  H00A 3855   8.118  11.016   5.417
    68G11  C033 3856   8.134  10.950   5.626
    68G11  H00B 3857   8.028  10.940   5.645
    68G11  C01O 3858   8.232  10.888   5.714
    68G11  C01N 3859   8.188  10.831   5.834
    68G11  C01M 3860   8.045  10.795   5.861
    68G11  C01L 3861   7.917  10.761   5.790
    68G11  C01K 3862   7.827  10.739   5.898
    68G11  C01Y 3863   7.696  10.680   5.892
    68G11  C02I 3864   7.648  10.654   5.762
    68G11  C02N 3865   7.524  10.587   5.754
    68G11  C02M 3866   7.466  10.568   5.625
    68G11  C02L 3867   7.535  10.600   5.506
    68G11  C02K 3868   7.669  10.658   5.521
    68G11  C02U 3869   7.735  10.686   5.399
    68G11  C02V 3870   7.674  10.675   5.276
    68G11  C03H 3871   7.725  10.733   5.155
    68G11  H00C 3872   7.801  10.810   5.162
    68G11  C02W 3873   7.868  10.719   5.402
    68G11  C02X 3874   7.923  10.732   5.526
    68G11  C02Y 3875   8.053  10.727   5.488
    68G11  H008 3876   8.136  10.712   5.556
    68G11  C02Z 3877   8.073  10.730   5.344
    68G11  O004 3878   8.178  10.738   5.275
    68G11  O003 3879   7.950  10.732   5.296
    68G11  C02J 3880   7.725  10.688   5.647
    68G11  C01Z 3881   7.640  10.643   6.015
    68G11  C020 3882   7.711  10.642   6.132
    68G11  C01I 3883   7.837  10.698   6.140
    68G11  C01H 3884   7.929  10.666   6.237
    68G11  C00K 3885   8.067  10.706   6.224
    68G11  C01S 3886   8.112  10.760   6.104
    68G11  C014 3887   8.241  10.763   6.069
    68G11  C00J 3888   8.160  10.655   6.310
    68G11  C00I 3889   8.117  10.571   6.417
    68G11  C00H 3890   7.983  10.546   6.442
    68G11  C00G 3891   7.935  10.458   6.536
    68G11  C00S 3892   8.210  10.518   6.501
    68G11  C00T 3893   8.161  10.428   6.591
    68G11  C00U 3894   8.259  10.352   6.654
    68G11  C00R 3895   8.350  10.535   6.480
    68G11  C00L 3896   8.297  10.671   6.282
    68G11  C028 3897   7.885  10.589   6.347
    68G11  C023 3898   7.751  10.544   6.349
    68G11  C024 3899   7.706  10.461   6.451
    68G11  C021 3900   7.663  10.573   6.243
    68G11  C022 3901   7.534  10.523   6.246
    68G11  C02H 3902   7.490  10.450   6.356
    68G11  C030 3903   7.361  10.390   6.352
    68G11  C034 3904   7.285  10.410   6.240
    68G11  C02P 3905   7.463  10.534   6.131
    68G11  C02B 3906   7.522  10.583   6.010
    68G11  C01J 3907   7.887  10.760   6.020
    68G11  C01X 3908   7.863  10.736   5.656
    68G11  C01T 3909   8.020  10.777   6.002
    68G11  H009 3910   8.347  11.036   5.378
    68G11  C01P 3911   8.369  10.906   5.693
    68G11  C01R 3912   8.281  10.804   5.938
    68G11  C00Z 3913   8.641  10.817   5.996
    68G11  O000 3914   8.735  10.790   6.087
    68G11  C00M 3915   8.336  10.726   6.163
    68G11  C00Y 3916   8.696  10.733   6.210
    68G11  C013 3917   8.788  10.706   6.316
    68G11  H001 3918   8.886  10.745   6.294
    68G11  C00Q 3919   8.390  10.611   6.369
    68G11  C001 3920   8.753  10.629   6.427
    68G11  C000 3921   8.840  10.590   6.522
    68G11  H006 3922   8.940  10.630   6.509
    68G11  C00W 3923   8.445  10.468   6.557
    68G11  C01G 3924   8.817  10.497   6.623
    68G11  H005 3925   8.906  10.469   6.677
    68G11  C01C 3926   8.800  10.283   6.810
    68G11  H002 3927   8.900  10.324   6.811
    68G11  C01B 3928   8.756  10.176   6.896
    68G11  C01D 3929   8.828  10.092   6.991
    68G11  H003 3930   8.936  10.098   6.997
    68G11  C01E 3931   8.757   9.995   7.053
    68G11  H004 3932   8.815   9.925   7.111
    68G11  O002 3933   8.616   9.977   7.041
    68G11  C01A 3934   8.617  10.153   6.878
    68G11  C00V 3935   8.396  10.362   6.645
    68G11  C019 3936   8.546  10.051   6.954
    68G11  C02E 3937   8.066   9.753   7.193
    68G11  C0FX 3938   8.029   9.660   7.289
    68G11  C0FW 3939   7.900   9.620   7.303
    68G11  C0GB 3940   8.127   9.607   7.374
    68G11  C0G3 3941   7.965   9.818   7.120
    68G11  C07H 3942   7.832   9.792   7.152
    68G11  C0GC 3943   8.260   9.644   7.361
    68G11  C0G2 3944   8.086   9.513   7.465
    68G11  C0G1 3945   7.957   9.475   7.483
    68G11  C0FB 3946   7.752   9.268   7.709
    68G11  C0F2 3947   7.557   9.376   7.545
    68G11  C0FY 3948   7.860   9.525   7.397
    68G11  C0F5 3949   7.498   9.523   7.363
    68G11  C0FV 3950   7.800   9.686   7.236
    68G11  C079 3951   7.440   9.675   7.188
    68G11  C07A 3952   7.374   9.830   7.010
    68G11  C06Y 3953   7.443  10.009   6.815
    68G11  C07D 3954   7.732   9.859   7.081
    68G11  C01F 3955   8.001   9.915   7.022
    68G11  C00A 3956   8.171  10.044   6.908
    68G11  C00X 3957   8.223  10.253   6.740
    68G11  C00F 3958   8.027  10.394   6.612
    68G11  C029 3959   7.834  10.145   6.796
    68G11  C025 3960   7.800  10.414   6.543
    68G11  C06U 3961   7.601  10.161   6.719
    68G11  C02A 3962   7.578  10.416   6.450
    68G11  C05Y 3963   7.323  10.296   6.452
    68G11  C05Z 3964   7.199  10.227   6.440
    68G11  C060 3965   7.118  10.248   6.325
    68G11  C062 3966   7.008  10.169   6.297
    68G11  C06T 3967   7.477  10.107   6.724
    68G11  C06A 3968   7.167  10.129   6.524
    68G11  C06Z 3969   7.315   9.962   6.817
    68G11  C06Q 3970   7.062   9.849   6.809
    68G11  C068 3971   7.046  10.056   6.505
    68G11  C067 3972   6.962  10.079   6.396
    68G11  C063 3973   6.634   9.814   6.339
    68G11  C06C 3974   6.528   9.722   6.330
    68G11  C06D 3975   6.450   9.708   6.216
    68G11  C06E 3976   6.354   9.614   6.180
    68G11  C07Q 3977   6.340   9.511   6.272
    68G11  C07P 3978   6.396   9.531   6.401
    68G11  C07T 3979   6.371   9.440   6.503
    68G11  C07U 3980   6.433   9.454   6.628
    68G11  C07V 3981   6.412   9.352   6.715
    68G11  C084 3982   6.327   9.245   6.683
    68G11  C08C 3983   6.262   9.241   6.559
    68G11  C08B 3984   6.173   9.142   6.529
    68G11  C08A 3985   6.125   9.133   6.402
    68G11  C089 3986   6.150   9.217   6.300
    68G11  C088 3987   6.104   9.188   6.168
    68G11  C087 3988   6.132   9.283   6.072
    68G11  C086 3989   6.207   9.389   6.104
    68G11  C08X 3990   6.031   9.070   6.140
    68G11  C08T 3991   5.988   8.999   6.257
    68G11  C08D 3992   6.237   9.316   6.334
    68G11  C08U 3993   6.032   9.038   6.380
    68G11  C08V 3994   5.997   8.945   6.476
    68G11  C0CY 3995   6.059   8.942   6.600
    68G11  C0CX 3996   6.030   8.834   6.678
    68G11  C0CW 3997   6.101   8.837   6.801
    68G11  C0CV 3998   6.183   8.939   6.839
    68G11  C0D4 3999   6.206   9.046   6.750
    68G11  C0CU 4000   6.247   8.931   6.959
    68G11  C0CT 4001   6.228   8.831   7.055
    68G11  C0CS 4002   6.142   8.729   7.018
    68G11  C0D6 4003   6.321   9.043   6.983
    68G11  C0EC 4004   6.352   9.149   6.899
    68G11  C07X 4005   6.439   9.256   6.934
    68G11  C0DL 4006   6.387   9.042   7.105
    68G11  C0DK 4007   6.477   9.147   7.133
    68G11  C0DN 4008   6.529   9.114   7.253
    68G11  C0D8 4009   6.388   8.938   7.200
    68G11  C08W 4010   5.918   8.844   6.421
    68G11  C0CQ 4011   5.881   8.731   6.506
    68G11  C093 4012   6.147   9.044   6.627
    68G11  C092 4013   6.292   9.149   6.774
    68G11  C085 4014   6.286   9.335   6.467
    68G11  C07S 4015   6.265   9.405   6.237
    68G11  C06F 4016   6.292   9.611   6.052
    68G11  C07O 4017   6.491   9.635   6.430
    68G11  C07N 4018   6.564   9.638   6.551
    68G11  C05D 4019   6.475   9.811   6.127
    68G11  C05C 4020   6.415   9.806   6.007
    68G11  C05N 4021   6.476   9.896   5.926
    68G11  C05M 4022   6.791  10.094   6.006
    68G11  C05I 4023   6.945  10.170   6.174
    68G11  C061 4024   7.169  10.335   6.229
    68G11  C02Q 4025   7.339  10.478   6.132
    68G11  C02O 4026   7.463  10.565   5.884
    68G11  C03Q 4027   7.137  10.407   5.880
    68G11  C03O 4028   7.032  10.323   5.681
    68G11  C03L 4029   7.123  10.344   5.340
    68G11  C02S 4030   7.341  10.500   5.599
    68G11  C02T 4031   7.481  10.579   5.370
    68G11  C03K 4032   7.202  10.371   5.218
    68G11  C03I 4033   7.551  10.612   5.263
    68G11  C03G 4034   7.685  10.700   5.027
    68G11  H00D 4035   7.727  10.744   4.938
    68G11  C03J 4036   7.359  10.444   4.990
    68G11  C03W 4037   7.326  10.335   4.736
    68G11  C04I 4038   7.136  10.219   4.809
    68G11  C04K 4039   6.915  10.043   4.789
    68G11  C04N 4040   6.810   9.949   4.798
    68G11  C04X 4041   6.621   9.852   4.912
    68G11  C050 4042   6.437   9.726   5.040
    68G11  C05W 4043   6.508   9.896   5.260
    68G11  C05S 4044   6.187   9.580   5.404
    68G11  C05R 4045   6.351   9.874   5.515
    68G11  C05O 4046   6.428   9.904   5.798
    68G11  C05B 4047   6.312   9.710   5.965
    68G11  C05A 4048   6.171   9.613   5.647
    68G11  C07R 4049   6.222   9.496   6.011
    68G11  C08N 4050   6.081   9.267   5.939
    68G11  C08M 4051   6.024   9.136   5.911
    68G11  C08L 4052   5.979   9.119   5.774
    68G11  C091 4053   6.145   9.520   5.543
    68G11  C09K 4054   5.834   9.386   5.450
    68G11  H00M 4055   5.802   9.488   5.437
    68G11  C08K 4056   6.004   9.214   5.675
    68G11  C09J 4057   5.751   9.263   5.461
    68G11  C09I 4058   5.618   9.202   5.460
    68G11  C09L 4059   5.498   9.258   5.413
    68G11  H00N 4060   5.490   9.358   5.373
    68G11  C09Q 4061   5.390   9.170   5.416
    68G11  H00O 4062   5.296   9.203   5.373
    68G11  O00B 4063   5.391   9.037   5.467
    68G11  C09G 4064   5.507   8.990   5.530
    68G11  C09F 4065   5.498   8.871   5.606
    68G11  O00A 4066   5.371   8.819   5.599
    68G11  C09P 4067   5.351   8.702   5.664
    68G11  H00P 4068   5.319   8.615   5.609
    68G11  C09O 4069   5.417   8.680   5.790
    68G11  C09D 4070   5.557   8.718   5.790
    68G11  C09C 4071   5.656   8.671   5.887
    68G11  C09N 4072   5.641   8.609   6.016
    68G11  C09T 4073   5.524   8.601   6.088
    68G11  C09S 4074   5.396   8.612   6.032
    68G11  C0CP 4075   5.313   8.585   6.141
    68G11  C0CN 4076   5.375   8.568   6.262
    68G11  C0CO 4077   5.298   8.554   6.379
    68G11  H014 4078   5.344   8.546   6.477
    68G11  C0CZ 4079   5.156   8.553   6.366
    68G11  H015 4080   5.096   8.544   6.455
    68G11  C0D0 4081   5.092   8.564   6.239
    68G11  C0G5 4082   4.947   8.564   6.214
    68G11  H01F 4083   4.878   8.550   6.296
    68G11  C0G4 4084   4.896   8.583   6.084
    68G11  H01G 4085   4.790   8.583   6.066
    68G11  O00H 4086   4.978   8.597   5.978
    68G11  C0D2 4087   5.114   8.600   6.001
    68G11  C09V 4088   5.200   8.624   5.889
    68G11  H00Q 4089   5.155   8.634   5.791
    68G11  C0D1 4090   5.172   8.582   6.127
    68G11  C09R 4091   5.341   8.642   5.902
    68G11  C09H 4092   5.623   9.064   5.510
    68G11  C09E 4093   5.596   8.810   5.687
    68G11  C09B 4094   5.789   8.700   5.878
    68G11  C08Z 4095   5.900   9.003   5.750
    68G11  C08O 4096   6.004   9.036   6.009
    68G11  C09A 4097   5.865   8.676   5.995
    68G11  C08S 4098   5.907   8.877   6.282
    68G11  C099 4099   5.773   8.611   6.083
    68G11  C09U 4100   5.517   8.568   6.230
    68G11  C0BO 4101   5.620   8.361   6.651
    68G11  C0CL 4102   5.790   8.632   6.473
    68G11  C0D3 4103   5.943   8.732   6.638
    68G11  C0D5 4104   6.078   8.727   6.887
    68G11  C0BR 4105   5.785   8.451   6.802
    68G11  C0BQ 4106   5.681   8.360   6.775
    68G11  C0BL 4107   5.461   8.199   6.735
    68G11  C0AF 4108   5.351   8.058   6.940
    68G11  C0BH 4109   5.658   8.185   7.098
    68G11  C0BG 4110   5.724   8.175   7.219
    68G11  C0BD 4111   5.547   8.046   7.310
    68G11  C0AG 4112   5.294   8.010   7.052
    68G11  C0AI 4113   5.120   7.874   7.139
    68G11  C0AV 4114   5.024   7.703   7.318
    68G11  C0BB 4115   5.275   7.903   7.512
    68G11  O00C 4116   5.066   7.611   7.541
    68G11  C0BC 4117   5.326   7.872   7.639
    68G11  C0B9 4118   5.486   7.984   7.422
    68G11  O00E 4119   5.728   8.023   7.673
    68G11  C0CA 4120   5.830   8.111   7.706
    68G11  O00F 4121   5.860   8.137   7.820
    68G11  C0BF 4122   5.672   8.096   7.319
    68G11  C0C5 4123   5.893   8.174   7.595
    68G11  C0C4 4124   6.002   8.265   7.628
    68G11  H011 4125   6.033   8.283   7.730
    68G11  C0C8 4126   5.844   8.245   7.234
    68G11  C0C2 4127   6.055   8.337   7.518
    68G11  C0C3 4128   6.155   8.434   7.537
    68G11  C0DY 4129   6.215   8.463   7.657
    68G11  H016 4130   6.209   8.422   7.757
    68G11  C0DX 4131   6.305   8.571   7.630
    68G11  C0DW 4132   6.377   8.626   7.736
    68G11  C0BY 4133   5.997   8.421   7.162
    68G11  C0DB 4134   6.201   8.525   7.440
    68G11  C0CC 4135   6.117   8.625   7.107
    68G11  C0D7 4136   6.293   8.829   7.183
    68G11  C0DZ 4137   6.294   8.613   7.492
    68G11  C0DM 4138   6.481   8.986   7.298
    68G11  C0DQ 4139   6.522   8.795   7.605
    68G11  C0DV 4140   6.486   8.712   7.712
    68G11  C0E0 4141   6.401   8.556   7.869
    68G11  C0FO 4142   6.595   8.708   8.129
    68G11  C0E3 4143   6.318   8.564   7.989
    68G11  H017 4144   6.211   8.571   7.992
    68G11  C0GV 4145   6.520   8.710   8.247
    68G11  C0ES 4146   6.674   8.812   8.091
    68G11  C0GQ 4147   6.623   9.025   8.393
    68G11  C0FJ 4148   6.891   9.239   8.235
    68G11  C0ED 4149   6.846   9.038   8.038
    68G11  C0ER 4150   7.178   9.124   7.927
    68G11  C0EP 4151   7.123   9.186   7.710
    68G11  C0E6 4152   6.797   8.990   7.787
    68G11  C0DE 4153   6.719   9.097   7.505
    68G11  C0EA 4154   7.052   9.280   7.479
    68G11  C0DF 4155   6.689   9.203   7.423
    68G11  C080 4156   6.884   9.414   7.210
    68G11  C0DO 4157   6.621   9.205   7.301
    68G11  C0DJ 4158   6.500   9.260   7.055
    68G11  C07K 4159   6.751   9.529   7.000
    68G11  C07W 4160   6.469   9.354   6.842
    68G11  C083 4161   6.531   9.548   6.650
    68G11  C07J 4162   6.787   9.623   6.896
    68G11  C06O 4163   6.855   9.803   6.694
    68G11  C06M 4164   6.669   9.727   6.567
    78G11  C071 4165   9.938   6.598  10.996
    78G11  C07L 4166  10.024   6.674  10.917
    78G11  C07M 4167  10.093   6.621  10.810
    78G11  C07Y 4168  10.197   6.695  10.748
    78G11  C081 4169  10.229   6.825  10.789
    78G11  C082 4170  10.349   6.878  10.729
    78G11  C0DI 4171  10.434   6.990  10.769
    78G11  C0DH 4172  10.416   7.094  10.867
    78G11  C0DG 4173  10.542   7.163  10.890
    78G11  C0E9 4174  10.564   7.308  10.908
    78G11  C0E8 4175  10.678   7.343  10.818
    78G11  C0E7 4176  10.756   7.469  10.800
    78G11  C0EB 4177  10.709   7.594  10.853
    78G11  C0EF 4178  10.764   7.728  10.833
    78G11  C0EE 4179  10.860   7.783  10.747
    78G11  C0FD 4180  10.839   7.910  10.691
    78G11  C0FE 4181  10.715   7.969  10.655
    78G11  H01B 4182  10.634   7.898  10.653
    78G11  C0FF 4183  10.701   8.108  10.624
    78G11  H01A 4184  10.601   8.146  10.606
    78G11  C0FG 4185  10.812   8.187  10.632
    78G11  H018 4186  10.801   8.292  10.609
    78G11  C0FH 4187  10.938   8.130  10.662
    78G11  C0FI 4188  11.059   8.205  10.677
    78G11  H019 4189  11.058   8.312  10.661
    78G11  O00K 4190  11.185   8.149  10.693
    78G11  C0FL 4191  11.193   8.014  10.689
    78G11  C0FK 4192  11.079   7.935  10.692
    78G11  C0FM 4193  11.094   7.795  10.706
    78G11  C0FN 4194  11.223   7.736  10.688
    78G11  C0FP 4195  11.332   7.821  10.661
    78G11  C0GO 4196  11.450   7.774  10.613
    78G11  C0GN 4197  11.558   7.841  10.580
    78G11  C0GR 4198  11.547   7.979  10.605
    78G11  C0GS 4199  11.660   8.057  10.577
    78G11  H01Q 4200  11.662   8.164  10.592
    78G11  C0GT 4201  11.778   8.008  10.528
    78G11  H01O 4202  11.866   8.066  10.504
    78G11  C0GU 4203  11.783   7.871  10.498
    78G11  H01P 4204  11.872   7.834  10.450
    78G11  O00L 4205  11.433   8.039  10.646
    78G11  C0GM 4206  11.672   7.782  10.518
    78G11  C0GL 4207  11.659   7.641  10.476
    78G11  H01R 4208  11.744   7.593  10.430
    78G11  C0GK 4209  11.562   7.566  10.535
    78G11  C0GP 4210  11.522   7.427  10.553
    78G11  C0E2 4211  11.426   7.416  10.665
    78G11  C0E1 4212  11.343   7.310  10.630
    78G11  C0DU 4213  11.204   7.297  10.648
    78G11  C0DT 4214  11.114   7.387  10.707
    78G11  C0E4 4215  11.126   7.519  10.720
    78G11  C0E5 4216  11.000   7.573  10.746
    78G11  C0DS 4217  10.973   7.361  10.702
    78G11  C0DR 4218  10.929   7.240  10.643
    78G11  C0DD 4219  10.802   7.201  10.633
    78G11  C0DC 4220  10.810   7.094  10.533
    78G11  C0DP 4221  10.942   7.086  10.474
    78G11  C0DA 4222  10.992   7.003  10.364
    78G11  C0D9 4223  10.933   6.888  10.300
    78G11  C0CR 4224  10.995   6.820  10.193
    78G11  C0C0 4225  11.106   6.870  10.129
    78G11  C0BZ 4226  11.163   6.820  10.013
    78G11  C0C1 4227  11.262   6.893   9.947
    78G11  C0C7 4228  11.310   6.845   9.826
    78G11  C0C6 4229  11.408   6.917   9.755
    78G11  C0C9 4230  11.451   6.870   9.632
    78G11  C0B8 4231  11.557   6.939   9.562
    78G11  C0B7 4232  11.591   6.903   9.430
    78G11  C0B6 4233  11.696   6.950   9.336
    78G11  C0B5 4234  11.824   7.008   9.364
    78G11  H00Z 4235  11.856   7.049   9.459
    78G11  C0B4 4236  11.906   6.990   9.245
    78G11  H010 4237  12.014   7.001   9.247
    78G11  C0B3 4238  11.830   6.920   9.148
    78G11  C0AP 4239  11.841   6.802   9.064
    78G11  C0AQ 4240  11.714   6.739   9.077
    78G11  C0AR 4241  11.697   6.600   9.049
    78G11  C0AS 4242  11.595   6.549   9.116
    78G11  C0AT 4243  11.521   6.610   9.218
    78G11  C0BA 4244  11.546   6.742   9.252
    78G11  C0AU 4245  11.438   6.535   9.295
    78G11  C0BE 4246  11.391   6.585   9.414
    78G11  C0BI 4247  11.319   6.499   9.494
    78G11  C0BJ 4248  11.290   6.367   9.458
    78G11  C0BK 4249  11.211   6.288   9.537
    78G11  C0BW 4250  11.151   6.342   9.646
    78G11  C0BV 4251  11.186   6.469   9.690
    78G11  C0BU 4252  11.134   6.523   9.806
    78G11  C0BX 4253  11.166   6.653   9.844
    78G11  C0BT 4254  11.043   6.448   9.877
    78G11  C0CD 4255  10.985   6.507   9.986
    78G11  C0CB 4256  11.015   6.636  10.030
    78G11  C0CE 4257  10.887   6.441  10.055
    78G11  C0CK 4258  10.854   6.305  10.021
    78G11  C0BS 4259  10.919   6.241   9.917
    78G11  C0CJ 4260  10.899   6.108   9.885
    78G11  C0BP 4261  10.980   6.044   9.784
    78G11  C0CI 4262  10.994   5.907   9.780
    78G11  C0CH 4263  11.046   5.854   9.661
    78G11  H012 4264  11.060   5.748   9.656
    78G11  C0BN 4265  11.101   5.941   9.560
    78G11  C0CG 4266  11.164   5.890   9.447
    78G11  C0CF 4267  11.132   5.753   9.404
    78G11  H013 4268  11.065   5.693   9.465
    78G11  O00G 4269  11.205   5.696   9.303
    78G11  C0AA 4270  11.300   5.766   9.240
    78G11  C0A9 4271  11.389   5.697   9.154
    78G11  H00U 4272  11.376   5.594   9.124
    78G11  C0A8 4273  11.494   5.768   9.100
    78G11  H00V 4274  11.556   5.702   9.042
    78G11  C0A7 4275  11.520   5.905   9.115
    78G11  C0A6 4276  11.421   5.977   9.192
    78G11  C0A5 4277  11.420   6.113   9.208
    78G11  C0A4 4278  11.507   6.207   9.139
    78G11  C0A3 4279  11.615   6.204   9.046
    78G11  C0A2 4280  11.682   6.083   9.010
    78G11  C0A1 4281  11.806   6.076   8.940
    78G11  C0A0 4282  11.912   6.171   8.895
    78G11  C09Z 4283  12.013   6.114   8.811
    78G11  C09Y 4284  12.109   6.202   8.752
    78G11  H00Y 4285  12.173   6.165   8.675
    78G11  C09X 4286  12.118   6.332   8.808
    78G11  C09W 4287  12.227   6.411   8.762
    78G11  H00R 4288  12.298   6.371   8.692
    78G11  C0AX 4289  12.250   6.536   8.800
    78G11  H00S 4290  12.333   6.597   8.766
    78G11  C0AW 4291  12.159   6.594   8.884
    78G11  H00T 4292  12.180   6.698   8.906
    78G11  C0AN 4293  12.035   6.533   8.917
    78G11  C0AO 4294  11.931   6.599   8.976
    78G11  C0AM 4295  12.021   6.394   8.885
    78G11  C0B2 4296  12.032   5.975   8.787
    78G11  O00D 4297  12.115   5.929   8.703
    78G11  C0B1 4298  11.946   5.887   8.847
    78G11  H00W 4299  11.960   5.781   8.831
    78G11  C0AL 4300  11.906   6.317   8.918
    78G11  C0AK 4301  11.800   6.390   8.979
    78G11  C0B0 4302  11.835   5.940   8.916
    78G11  C0AZ 4303  11.729   5.862   8.980
    78G11  H00X 4304  11.746   5.755   8.982
    78G11  C0AJ 4305  11.676   6.328   9.031
    78G11  C0AH 4306  11.482   6.343   9.156
    78G11  C0AE 4307  11.348   6.176   9.314
    78G11  C0AD 4308  11.271   6.098   9.398
    78G11  C0AY 4309  11.635   5.950   9.042
    78G11  C0AB 4310  11.331   5.903   9.265
    78G11  C0AC 4311  11.259   5.962   9.371
    78G11  C0BM 4312  11.121   6.072   9.589
    78G11  C0CM 4313  10.931   5.835   9.890
    78G11  C09M 4314  10.815   5.892   9.950
    78G11  C098 4315  10.717   5.795   9.998
    78G11  C08R 4316  10.586   5.807  10.068
    78G11  C08Q 4317  10.510   5.691  10.084
    78G11  C08P 4318  10.424   5.629  10.187
    78G11  C08Y 4319  10.438   5.495  10.203
    78G11  C097 4320  10.550   5.425  10.165
    78G11  C096 4321  10.593   5.340  10.259
    78G11  C090 4322  10.477   5.309  10.331
    78G11  C095 4323  10.469   5.233  10.450
    78G11  C094 4324  10.352   5.200  10.524
    78G11  C08J 4325  10.230   5.272  10.534
    78G11  C08I 4326  10.171   5.267  10.663
    78G11  C08H 4327  10.078   5.375  10.677
    78G11  C08G 4328  10.119   5.479  10.581
    78G11  C08F 4329  10.079   5.614  10.540
    78G11  C08E 4330   9.975   5.673  10.615
    78G11  C059 4331   9.863   5.610  10.680
    78G11  C058 4332   9.769   5.682  10.752
    78G11  C057 4333   9.664   5.631  10.828
    78G11  C056 4334   9.657   5.489  10.827
    78G11  C055 4335   9.728   5.408  10.742
    78G11  C054 4336   9.730   5.277  10.789
    78G11  C053 4337   9.670   5.279  10.919
    78G11  C052 4338   9.675   5.173  11.015
    78G11  C051 4339   9.755   5.053  10.990
    78G11  C05U 4340   9.850   5.025  10.881
    78G11  C05T 4341   9.904   5.105  10.776
    78G11  C06K 4342   9.985   5.026  10.696
    78G11  H00J 4343  10.030   5.067  10.606
    78G11  C06L 4344   9.975   4.891  10.734
    78G11  H00I 4345  10.009   4.806  10.677
    78G11  C05V 4346   9.897   4.895  10.858
    78G11  C06J 4347   9.884   4.797  10.946
    78G11  H00K 4348   9.920   4.697  10.931
    78G11  C05X 4349   9.820   4.821  11.067
    78G11  C06I 4350   9.811   4.728  11.173
    78G11  H00L 4351   9.863   4.635  11.154
    78G11  C04Z 4352   9.749   4.756  11.298
    78G11  C06H 4353   9.756   4.653  11.399
    78G11  H00H 4354   9.796   4.554  11.378
    78G11  C04Y 4355   9.703   4.689  11.527
    78G11  C06G 4356   9.719   4.595  11.637
    78G11  O009 4357   9.762   4.476  11.627
    78G11  O008 4358   9.660   4.630  11.760
    78G11  C04P 4359   9.608   4.756  11.784
    78G11  C04J 4360   9.563   4.801  11.915
    78G11  C04Q 4361   9.568   4.731  12.036
    78G11  H00E 4362   9.607   4.630  12.032
    78G11  C04M 4363   9.525   4.779  12.159
    78G11  C04R 4364   9.526   4.706  12.280
    78G11  H00F 4365   9.571   4.609  12.290
    78G11  C04S 4366   9.458   4.753  12.385
    78G11  H00G 4367   9.457   4.699  12.478
    78G11  O007 4368   9.388   4.872  12.383
    78G11  C03V 4369   9.407   4.955  12.274
    78G11  C03U 4370   9.370   5.088  12.275
    78G11  O006 4371   9.289   5.128  12.380
    78G11  C03F 4372   9.287   5.259  12.397
    78G11  C03E 4373   9.323   5.353  12.297
    78G11  C03D 4374   9.355   5.305  12.172
    78G11  C03C 4375   9.356   5.392  12.060
    78G11  C03B 4376   9.335   5.527  12.093
    78G11  C03A 4377   9.350   5.622  11.987
    78G11  C039 4378   9.371   5.572  11.855
    78G11  C038 4379   9.377   5.701  11.785
    78G11  C037 4380   9.357   5.803  11.883
    78G11  C036 4381   9.348   5.933  11.847
    78G11  C02R 4382   9.334   6.038  11.935
    78G11  C035 4383   9.340   6.149  11.846
    78G11  C03R 4384   9.361   6.113  11.716
    78G11  C03S 4385   9.441   6.181  11.627
    78G11  C049 4386   9.479   6.119  11.511
    78G11  C048 4387   9.459   5.978  11.510
    78G11  C03P 4388   9.415   5.890  11.621
    78G11  C047 4389   9.490   5.924  11.387
    78G11  C046 4390   9.474   5.788  11.345
    78G11  C045 4391   9.434   5.674  11.414
    78G11  C03T 4392   9.408   5.649  11.550
    78G11  C044 4393   9.391   5.509  11.569
    78G11  C043 4394   9.392   5.448  11.439
    78G11  C042 4395   9.438   5.318  11.450
    78G11  C041 4396   9.427   5.293  11.598
    78G11  C040 4397   9.474   5.175  11.664
    78G11  C03Z 4398   9.462   5.146  11.806
    78G11  C04H 4399   9.510   5.011  11.816
    78G11  C04G 4400   9.540   4.966  11.693
    78G11  C03N 4401   9.417   5.207  11.925
    78G11  C03Y 4402   9.418   5.125  12.041
    78G11  C03X 4403   9.463   4.988  12.040
    78G11  C04F 4404   9.529   5.063  11.599
    78G11  C04E 4405   9.574   5.038  11.467
    78G11  C04O 4406   9.632   4.912  11.442
    78G11  C04D 4407   9.557   5.120  11.353
    78G11  C04V 4408   9.618   5.085  11.230
    78G11  C04W 4409   9.692   4.966  11.207
    78G11  C04C 4410   9.492   5.245  11.338
    78G11  C04L 4411   9.519   5.288  11.197
    78G11  C04U 4412   9.487   5.420  11.146
    78G11  C05Q 4413   9.532   5.470  11.021
    78G11  C05P 4414   9.530   5.618  11.021
    78G11  C04T 4415   9.492   5.657  11.148
    78G11  C04B 4416   9.465   5.543  11.224
    78G11  C03M 4417   9.394   5.412  11.673
    78G11  C04A 4418   9.435   5.551  11.359
    78G11  C05H 4419   9.499   5.781  11.211
    78G11  C05G 4420   9.555   5.906  11.167
    78G11  C05F 4421   9.580   5.939  11.029
    78G11  C05E 4422   9.661   6.059  11.002
    78G11  C05L 4423   9.710   6.179  11.073
    78G11  C05K 4424   9.657   6.224  11.199
    78G11  C05J 4425   9.582   6.145  11.292
    78G11  C066 4426   9.692   6.356  11.235
    78G11  C065 4427   9.774   6.438  11.158
    78G11  C064 4428   9.831   6.387  11.040
    78G11  C06N 4429   9.801   6.569  11.195
    78G11  C069 4430   9.753   6.622  11.315
    78G11  C06P 4431   9.789   6.752  11.358
    78G11  C06R 4432   9.765   6.798  11.490
    78G11  C06B 4433   9.688   6.717  11.570
    78G11  C06S 4434   9.666   6.763  11.698
    78G11  C02G 4435   9.590   6.680  11.784
    78G11  C02F 4436   9.559   6.717  11.916
    78G11  C027 4437   9.604   6.844  11.957
    78G11  C026 4438   9.595   6.873  12.094
    78G11  C00E 4439   9.658   6.988  12.144
    78G11  C00D 4440   9.638   7.023  12.276
    78G11  C00C 4441   9.697   7.138  12.321
    78G11  C00B 4442   9.773   7.217  12.247
    78G11  C015 4443   9.785   7.191  12.114
    78G11  C07F 4444   9.875   7.262  12.039
    78G11  C07E 4445   9.892   7.226  11.907
    78G11  C06W 4446   9.818   7.124  11.849
    78G11  C06V 4447   9.741   7.039  11.923
    78G11  C06X 4448   9.842   7.082  11.715
    78G11  C07B 4449   9.933   7.152  11.639
    78G11  C07C 4450   9.997   7.263  11.692
    78G11  C0FU 4451  10.084   7.337  11.612
    78G11  C0F7 4452  10.163   7.437  11.663
    78G11  C0F6 4453  10.252   7.501  11.584
    78G11  C0F8 4454  10.327   7.601  11.640
    78G11  C0F9 4455  10.411   7.677  11.557
    78G11  C0FA 4456  10.466   7.798  11.604
    78G11  C0FZ 4457  10.453   7.829  11.736
    78G11  C0G0 4458  10.505   7.947  11.787
    78G11  C0GD 4459  10.538   8.050  11.698
    78G11  C0FC 4460  10.560   8.020  11.565
    78G11  C0GH 4461  10.602   8.119  11.471
    78G11  C0EY 4462  10.618   8.089  11.337
    78G11  C0EX 4463  10.664   8.183  11.246
    78G11  C0EW 4464  10.702   8.136  11.120
    78G11  C0FR 4465  10.742   8.232  11.021
    78G11  H01D 4466  10.767   8.198  10.921
    78G11  C0FS 4467  10.742   8.367  11.048
    78G11  H01C 4468  10.787   8.429  10.972
    78G11  C0GJ 4469  10.718   8.410  11.180
    78G11  H01N 4470  10.740   8.511  11.211
    78G11  C0EV 4471  10.689   8.006  11.086
    78G11  C0FT 4472  10.745   7.954  10.967
    78G11  H01E 4473  10.817   8.008  10.908
    78G11  C0EU 4474  10.617   7.921  11.170
    78G11  C0ET 4475  10.577   7.791  11.132
    78G11  C0EI 4476  10.512   7.700  11.211
    78G11  C0F1 4477  10.496   7.734  11.339
    78G11  C0F0 4478  10.546   7.858  11.386
    78G11  C0EH 4479  10.476   7.570  11.159
    78G11  C0EG 4480  10.523   7.520  11.035
    78G11  C0EJ 4481  10.392   7.493  11.239
    78G11  C0F3 4482  10.367   7.531  11.372
    78G11  C0EK 4483  10.334   7.372  11.189
    78G11  C0EL 4484  10.374   7.325  11.063
    78G11  C0EM 4485  10.289   7.216  11.026
    78G11  C0EN 4486  10.179   7.173  11.103
    78G11  C07I 4487  10.112   7.067  11.047
    78G11  C074 4488  10.021   6.985  11.122
    78G11  C073 4489   9.991   6.858  11.068
    78G11  C072 4490   9.912   6.781  11.153
    78G11  C075 4491   9.994   7.034  11.250
    78G11  C076 4492  10.058   7.148  11.301
    78G11  C078 4493  10.036   7.189  11.430
    78G11  C07G 4494   9.916   6.954  11.329
    78G11  C070 4495   9.890   7.001  11.455
    78G11  C07Z 4496  10.187   7.021  10.941
    78G11  C077 4497  10.147   7.220  11.229
    78G11  C0EO 4498  10.230   7.313  11.271
    78G11  C0F4 4499  10.201   7.361  11.400
    78G11  C0EQ 4500  10.623   7.747  11.006
    78G11  C0FQ 4501  10.678   8.320  11.281
    78G11  C0GI 4502  10.643   8.353  11.414
    78G11  H01L 4503  10.650   8.455  11.449
    78G11  C0EZ 4504  10.594   7.957  11.301
    78G11  C0GG 4505  10.609   8.258  11.511
    78G11  C0GF 4506  10.587   8.282  11.645
    78G11  H01M 4507  10.592   8.383  11.685
    78G11  C0GE 4508  10.549   8.183  11.731
    78G11  H01K 4509  10.526   8.222  11.829
    78G11  O00J 4510  10.496   7.982  11.918
    78G11  C0GA 4511  10.417   7.900  11.997
    78G11  C0G9 4512  10.414   7.933  12.133
    78G11  H01H 4513  10.471   8.016  12.172
    78G11  C0G8 4514  10.328   7.865  12.219
    78G11  C0G7 4515  10.314   7.892  12.358
    78G11  H01I 4516  10.395   7.936  12.414
    78G11  O00I 4517  10.212   7.850  12.430
    78G11  C0G6 4518  10.154   7.734  12.388
    78G11  H01J 4519  10.118   7.672  12.469
    78G11  C02D 4520  10.163   7.695  12.250
    78G11  C02C 4521  10.086   7.588  12.203
    78G11  C017 4522   9.991   7.512  12.286
    78G11  C016 4523   9.920   7.401  12.227
    78G11  O001 4524   9.957   7.550  12.416
    78G11  C018 4525   9.890   7.470  12.502
    78G11  C009 4526   9.824   7.357  12.453
    78G11  C008 4527   9.752   7.258  12.535
    78G11  C007 4528   9.710   7.241  12.671
    78G11  C006 4529   9.743   7.320  12.779
    78G11  C005 4530   9.694   7.304  12.913
    78G11  C004 4531   9.617   7.190  12.973
    78G11  C003 4532   9.556   7.068  12.912
    78G11  C002 4533   9.491   6.970  12.999
    78G11  C00P 4534   9.444   6.849  12.945
    78G11  C00O 4535   9.385   6.752  13.025
    78G11  C00N 4536   9.346   6.627  12.975
    78G11  C010 4537   9.277   6.536  13.051
    78G11  C011 4538   9.244   6.403  13.012
    78G11  C01Q 4539   9.184   6.312  13.101
    78G11  C01U 4540   9.141   6.359  13.225
    78G11  C012 4541   9.169   6.492  13.259
    78G11  H000 4542   9.133   6.528  13.355
    78G11  C01V 4543   9.078   6.261  13.305
    78G11  H007 4544   9.024   6.302  13.389
    78G11  O005 4545   9.049   6.135  13.267
    78G11  C01W 4546   9.097   6.091  13.142
    78G11  C031 4547   9.067   5.955  13.109
    78G11  C032 4548   9.087   5.912  12.980
    78G11  H00A 4549   9.065   5.809  12.954
    78G11  C033 4550   9.134   6.010  12.889
    78G11  H00B 4551   9.137   5.978  12.785
    78G11  C01O 4552   9.183   6.138  12.927
    78G11  C01N 4553   9.243   6.229  12.839
    78G11  C01M 4554   9.268   6.198  12.692
    78G11  C01L 4555   9.266   6.095  12.578
    78G11  C01K 4556   9.269   6.172  12.459
    78G11  C01Y 4557   9.299   6.125  12.331
    78G11  C02I 4558   9.295   5.990  12.302
    78G11  C02N 4559   9.312   5.953  12.167
    78G11  C02M 4560   9.313   5.815  12.145
    78G11  C02L 4561   9.300   5.719  12.244
    78G11  C02K 4562   9.283   5.764  12.379
    78G11  C02U 4563   9.275   5.664  12.477
    78G11  C02V 4564   9.267   5.530  12.451
    78G11  C03H 4565   9.226   5.435  12.547
    78G11  H00C 4566   9.193   5.455  12.648
    78G11  C02W 4567   9.288   5.701  12.610
    78G11  C02X 4568   9.291   5.836  12.637
    78G11  C02Y 4569   9.326   5.837  12.774
    78G11  H008 4570   9.356   5.920  12.836
    78G11  C02Z 4571   9.340   5.700  12.824
    78G11  O004 4572   9.375   5.664  12.933
    78G11  O003 4573   9.319   5.623  12.715
    78G11  C02J 4574   9.277   5.898  12.410
    78G11  C01Z 4575   9.319   6.231  12.239
    78G11  C020 4576   9.334   6.364  12.275
    78G11  C01I 4577   9.330   6.393  12.406
    78G11  C01H 4578   9.378   6.511  12.452
    78G11  C00K 4579   9.377   6.539  12.586
    78G11  C01S 4580   9.335   6.440  12.672
    78G11  C014 4581   9.330   6.460  12.806
    78G11  C00J 4582   9.427   6.658  12.634
    78G11  C00I 4583   9.478   6.748  12.546
    78G11  C00H 4584   9.479   6.726  12.414
    78G11  C00G 4585   9.538   6.812  12.318
    78G11  C00S 4586   9.527   6.869  12.594
    78G11  C00T 4587   9.574   6.953  12.505
    78G11  C00U 4588   9.633   7.071  12.548
    78G11  C00R 4589   9.523   6.905  12.725
    78G11  C00L 4590   9.425   6.684  12.766
    78G11  C028 4591   9.428   6.605  12.365
    78G11  C023 4592   9.431   6.577  12.228
    78G11  C024 4593   9.483   6.667  12.140
    78G11  C021 4594   9.388   6.455  12.185
    78G11  C022 4595   9.401   6.420  12.056
    78G11  C02H 4596   9.454   6.509  11.964
    78G11  C030 4597   9.476   6.474  11.829
    78G11  C034 4598   9.442   6.350  11.788
    78G11  C02P 4599   9.374   6.293  12.016
    78G11  C02B 4600   9.328   6.195  12.108
    78G11  C01J 4601   9.272   6.306  12.492
    78G11  C01X 4602   9.272   5.946  12.550
    78G11  C01T 4603   9.281   6.320  12.627
    78G11  H009 4604   9.004   5.896  13.175
    78G11  C01P 4605   9.162   6.179  13.057
    78G11  C01R 4606   9.273   6.362  12.888
    78G11  C00Z 4607   9.241   6.580  13.179
    78G11  O000 4608   9.276   6.700  13.234
    78G11  C00M 4609   9.370   6.589  12.848
    78G11  C00Y 4610   9.351   6.785  13.158
    78G11  C013 4611   9.402   6.906  13.211
    78G11  H001 4612   9.384   6.927  13.315
    78G11  C00Q 4613   9.468   6.811  12.812
    78G11  C001 4614   9.473   6.993  13.135
    78G11  C000 4615   9.534   7.107  13.186
    78G11  H006 4616   9.535   7.129  13.291
    78G11  C00W 4617   9.565   7.032  12.776
    78G11  C01G 4618   9.593   7.209  13.113
    78G11  H005 4619   9.619   7.301  13.163
    78G11  C01C 4620   9.749   7.417  12.980
    78G11  H002 4621   9.731   7.440  13.084
    78G11  C01B 4622   9.824   7.495  12.886
    78G11  C01D 4623   9.902   7.606  12.912
    78G11  H003 4624   9.915   7.639  13.015
    78G11  C01E 4625   9.963   7.663  12.808
    78G11  H004 4626  10.032   7.741  12.836
    78G11  O002 4627   9.961   7.614  12.675
    78G11  C01A 4628   9.819   7.443  12.756
    78G11  C00V 4629   9.632   7.118  12.677
    78G11  C019 4630   9.886   7.504  12.645
    78G11  C02E 4631  10.103   7.542  12.066
    78G11  C0FX 4632  10.199   7.611  11.989
    78G11  C0FW 4633  10.213   7.577  11.853
    78G11  C0GB 4634  10.263   7.727  12.034
    78G11  C0G3 4635  10.031   7.442  12.011
    78G11  C07H 4636  10.048   7.403  11.877
    78G11  C0GC 4637  10.247   7.767  12.168
    78G11  C0G2 4638  10.357   7.788  11.949
    78G11  C0G1 4639  10.379   7.751  11.819
    78G11  C0FB 4640  10.528   7.891  11.519
    78G11  C0F2 4641  10.430   7.646  11.424
    78G11  C0FY 4642  10.304   7.645  11.774
    78G11  C0F5 4643  10.274   7.468  11.451
    78G11  C0FV 4644  10.145   7.467  11.798
    78G11  C079 4645  10.107   7.299  11.480
    78G11  C07A 4646   9.953   7.114  11.510
    78G11  C06Y 4647   9.785   6.963  11.662
    78G11  C07D 4648   9.975   7.300  11.822
    78G11  C01F 4649   9.942   7.368  12.091
    78G11  C00A 4650   9.835   7.326  12.311
    78G11  C00X 4651   9.688   7.158  12.459
    78G11  C00F 4652   9.578   6.933  12.363
    78G11  C029 4653   9.726   7.077  12.059
    78G11  C025 4654   9.536   6.783  12.184
    78G11  C06U 4655   9.681   6.926  11.873
    78G11  C02A 4656   9.492   6.633  12.003
    78G11  C05Y 4657   9.537   6.562  11.741
    78G11  C05Z 4658   9.566   6.516  11.613
    78G11  C060 4659   9.530   6.390  11.566
    78G11  C062 4660   9.566   6.334  11.437
    78G11  C06T 4661   9.710   6.883  11.745
    78G11  C06A 4662   9.641   6.594  11.521
    78G11  C06Z 4663   9.812   6.921  11.536
    78G11  C06Q 4664   9.868   6.832  11.276
    78G11  C068 4665   9.672   6.543  11.394
    78G11  C067 4666   9.645   6.411  11.354
    78G11  C063 4667   9.798   6.256  10.997
    78G11  C06C 4668   9.860   6.213  10.879
    78G11  C06D 4669   9.845   6.084  10.837
    78G11  C06E 4670   9.911   6.019  10.733
    78G11  C07Q 4671  10.005   6.093  10.664
    78G11  C07P 4672  10.023   6.229  10.695
    78G11  C07T 4673  10.113   6.303  10.625
    78G11  C07U 4674  10.139   6.434  10.663
    78G11  C07V 4675  10.243   6.503  10.601
    78G11  C084 4676  10.323   6.441  10.502
    78G11  C08C 4677  10.292   6.308  10.467
    78G11  C08B 4678  10.368   6.245  10.372
    78G11  C08A 4679  10.342   6.115  10.342
    78G11  C089 4680  10.254   6.037  10.408
    78G11  C088 4681  10.253   5.899  10.386
    78G11  C087 4682  10.159   5.828  10.459
    78G11  C086 4683  10.070   5.888  10.541
    78G11  C08X 4684  10.340   5.837  10.292
    78G11  C08T 4685  10.432   5.927  10.218
    78G11  C08D 4686  10.171   6.101  10.493
    78G11  C08U 4687  10.425   6.060  10.246
    78G11  C08V 4688  10.532   6.126  10.190
    78G11  C0CY 4689  10.561   6.257  10.223
    78G11  C0CX 4690  10.670   6.313  10.166
    78G11  C0CW 4691  10.699   6.439  10.205
    78G11  C0CV 4692  10.619   6.506  10.300
    78G11  C0D4 4693  10.502   6.442  10.347
    78G11  C0CU 4694  10.643   6.640  10.328
    78G11  C0CT 4695  10.759   6.707  10.286
    78G11  C0CS 4696  10.835   6.637  10.192
    78G11  C0D6 4697  10.559   6.693  10.420
    78G11  C0EC 4698  10.451   6.636  10.478
    78G11  C07X 4699  10.374   6.695  10.574
    78G11  C0DL 4700  10.594   6.819  10.459
    78G11  C0DK 4701  10.519   6.874  10.555
    78G11  C0DN 4702  10.592   6.981  10.592
    78G11  C0D8 4703  10.712   6.889  10.422
    78G11  C08W 4704  10.608   6.046  10.108
    78G11  C0CQ 4705  10.724   6.103  10.048
    78G11  C093 4706  10.474   6.313  10.310
    78G11  C092 4707  10.422   6.506  10.439
    78G11  C085 4708  10.188   6.239  10.527
    78G11  C07S 4709  10.076   6.030  10.563
    78G11  C06F 4710   9.896   5.884  10.704
    78G11  C07O 4711   9.954   6.287  10.804
    78G11  C07N 4712   9.987   6.411  10.851
    78G11  C05D 4713   9.734   6.019  10.891
    78G11  C05C 4714   9.711   5.886  10.852
    78G11  C05N 4715   9.615   5.837  10.935
    78G11  C05M 4716   9.555   5.997  11.281
    78G11  C05I 4717   9.544   6.199  11.414
    78G11  C061 4718   9.467   6.311  11.658
    78G11  C02Q 4719   9.383   6.270  11.886
    78G11  C02O 4720   9.324   6.061  12.077
    78G11  C03Q 4721   9.375   5.977  11.725
    78G11  C03O 4722   9.400   5.746  11.647
    78G11  C03L 4723   9.384   5.436  11.817
    78G11  C02S 4724   9.329   5.759  12.007
    78G11  C02T 4725   9.308   5.580  12.220
    78G11  C03K 4726   9.381   5.341  11.929
    78G11  C03I 4727   9.302   5.486  12.323
    78G11  C03G 4728   9.232   5.303  12.518
    78G11  H00D 4729   9.197   5.236  12.595
    78G11  C03J 4730   9.379   5.173  12.158
    78G11  C03W 4731   9.468   4.907  12.157
    78G11  C04I 4732   9.510   4.928  11.928
    78G11  C04K 4733   9.595   4.844  11.674
    78G11  C04N 4734   9.638   4.814  11.547
    78G11  C04X 4735   9.691   4.879  11.317
    78G11  C050 4736   9.759   4.946  11.086
    78G11  C05W 4737   9.606   5.183  11.136
    78G11  C05S 4738   9.865   5.239  10.758
    78G11  C05R 4739   9.604   5.408  10.927
    78G11  C05O 4740   9.593   5.701  10.931
    78G11  C05B 4741   9.787   5.818  10.759
    78G11  C05A 4742   9.848   5.469  10.699
    78G11  C07R 4743   9.978   5.814  10.618
    78G11  C08N 4744  10.167   5.684  10.453
    78G11  C08M 4745  10.267   5.619  10.375
    78G11  C08L 4746  10.289   5.486  10.398
    78G11  C091 4747   9.937   5.359  10.708
    78G11  C09K 4748  10.284   5.239  10.747
    78G11  H00M 4749  10.282   5.267  10.851
    78G11  C08K 4750  10.218   5.415  10.499
    78G11  C09J 4751  10.392   5.188  10.663
    78G11  C09I 4752  10.533   5.203  10.670
    78G11  C09L 4753  10.615   5.198  10.782
    78G11  H00N 4754  10.574   5.179  10.881
    78G11  C09Q 4755  10.746   5.207  10.751
    78G11  H00O 4756  10.815   5.208  10.834
    78G11  O00B 4757  10.806   5.213  10.631
    78G11  C09G 4758  10.722   5.225  10.517
    78G11  C09F 4759  10.792   5.241  10.393
    78G11  O00A 4760  10.926   5.208  10.393
    78G11  C09P 4761  10.988   5.217  10.272
    78G11  H00P 4762  11.038   5.129  10.234
    78G11  C09O 4763  10.965   5.332  10.195
    78G11  C09D 4764  10.826   5.370  10.187
    78G11  C09C 4765  10.767   5.470  10.100
    78G11  C09N 4766  10.819   5.568  10.008
    78G11  C09T 4767  10.953   5.608  10.022
    78G11  C09S 4768  11.058   5.515  10.051
    78G11  C0CP 4769  11.169   5.569   9.988
    78G11  C0CN 4770  11.149   5.693   9.923
    78G11  C0CO 4771  11.256   5.764   9.864
    78G11  H014 4772  11.238   5.858   9.814
    78G11  C0CZ 4773  11.386   5.711   9.883
    78G11  H015 4774  11.471   5.769   9.851
    78G11  C0D0 4775  11.407   5.582   9.940
    78G11  C0G5 4776  11.531   5.510   9.950
    78G11  H01F 4777  11.619   5.556   9.905
    78G11  C0G4 4778  11.546   5.390  10.013
    78G11  H01G 4779  11.638   5.335  10.022
    78G11  O00H 4780  11.441   5.328  10.084
    78G11  C0D2 4781  11.322   5.394  10.079
    78G11  C09V 4782  11.203   5.337  10.139
    78G11  H00Q 4783  11.229   5.244  10.189
    78G11  C0D1 4784  11.301   5.509  10.005
    78G11  C09R 4785  11.070   5.392  10.125
    78G11  C09H 4786  10.581   5.214  10.539
    78G11  C09E 4787  10.735   5.307  10.280
    78G11  C09B 4788  10.636   5.492  10.089
    78G11  C08Z 4789  10.388   5.427  10.315
    78G11  C08O 4790  10.350   5.695  10.286
    78G11  C09A 4791  10.596   5.602  10.009
    78G11  C08S 4792  10.537   5.921  10.118
    78G11  C099 4793  10.717   5.657   9.966
    78G11  C09U 4794  11.007   5.720   9.939
    78G11  C0BO 4795  11.052   6.130   9.697
    78G11  C0CL 4796  10.808   6.035   9.961
    78G11  C0D3 4797  10.746   6.242  10.076
    78G11  C0D5 4798  10.806   6.507  10.151
    78G11  C0BR 4799  11.012   6.314   9.843
    78G11  C0BQ 4800  11.070   6.263   9.726
    78G11  C0BL 4801  11.199   6.150   9.503
    78G11  C0AF 4802  11.349   6.311   9.346
    78G11  C0BH 4803  11.270   6.547   9.613
    78G11  C0BG 4804  11.313   6.673   9.657
    78G11  C0BD 4805  11.434   6.714   9.455
    78G11  C0AG 4806  11.418   6.399   9.270
    78G11  C0AI 4807  11.580   6.412   9.089
    78G11  C0AV 4808  11.806   6.529   8.992
    78G11  C0BB 4809  11.641   6.809   9.172
    78G11  O00C 4810  11.952   6.730   9.008
    78G11  C0BC 4811  11.696   6.924   9.198
    78G11  C0B9 4812  11.517   6.789   9.380
    78G11  O00E 4813  11.611   7.049   9.622
    78G11  C0CA 4814  11.574   7.103   9.736
    78G11  O00F 4815  11.637   7.201   9.776
    78G11  C0BF 4816  11.404   6.750   9.585
    78G11  C0C5 4817  11.466   7.032   9.804
    78G11  C0C4 4818  11.423   7.083   9.926
    78G11  H011 4819  11.460   7.177   9.963
    78G11  C0C8 4820  11.261   6.725   9.775
    78G11  C0C2 4821  11.318   7.011   9.994
    78G11  C0C3 4822  11.271   7.053  10.125
    78G11  C0DY 4823  11.311   7.158  10.209
    78G11  H016 4824  11.389   7.233  10.207
    78G11  C0DX 4825  11.223   7.149  10.323
    78G11  C0DW 4826  11.258   7.208  10.444
    78G11  C0BY 4827  11.114   6.703   9.963
    78G11  C0DB 4828  11.161   6.991  10.184
    78G11  C0CC 4829  10.949   6.695  10.141
    78G11  C0D7 4830  10.807   6.828  10.333
    78G11  C0DZ 4831  11.118   7.050  10.302
    78G11  C0DM 4832  10.702   7.007  10.500
    78G11  C0DQ 4833  11.017   7.176  10.551
    78G11  C0DV 4834  11.153   7.215  10.544
    78G11  C0E0 4835  11.386   7.250  10.505
    78G11  C0FO 4836  11.373   7.547  10.682
    78G11  C0E3 4837  11.491   7.325  10.451
    78G11  H017 4838  11.520   7.328  10.347
    78G11  C0GV 4839  11.462   7.633  10.608
    78G11  C0ES 4840  11.240   7.597  10.703
    78G11  C0GQ 4841  11.320   7.961  10.673
    78G11  C0FJ 4842  10.953   7.996  10.682
    78G11  C0ED 4843  10.979   7.714  10.732
    78G11  C0ER 4844  10.708   7.823  10.929
    78G11  C0EP 4845  10.616   7.613  10.962
    78G11  C0E6 4846  10.896   7.470  10.749
    78G11  C0DE 4847  10.706   7.221  10.741
    78G11  C0EA 4848  10.487   7.387  10.998
    78G11  C0DF 4849  10.630   7.116  10.793
    78G11  C080 4850  10.290   7.120  10.921
    78G11  C0DO 4851  10.552   7.029  10.709
    78G11  C0DJ 4852  10.406   6.817  10.621
    78G11  C07K 4853  10.150   6.886  10.890
    78G11  C07W 4854  10.271   6.629  10.643
    78G11  C083 4855  10.070   6.490  10.768
    78G11  C07J 4856  10.048   6.809  10.953
    78G11  C06O 4857   9.877   6.650  11.113
    78G11  C06M 4858   9.917   6.466  10.963
    88G11  C071 4859   6.720   1.698  11.638
    88G11  C07L 4860   6.816   1.632  11.555
    88G11  C07M 4861   6.941   1.588  11.605
    88G11  C07Y 4862   7.040   1.536  11.521
    88G11  C081 4863   7.014   1.508  11.385
    88G11  C082 4864   7.117   1.439  11.311
    88G11  C0DI 4865   7.115   1.399  11.171
    88G11  C0DH 4866   7.028   1.431  11.063
    88G11  C0DG 4867   7.076   1.372  10.936
    88G11  C0E9 4868   7.086   1.438  10.808
    88G11  C0E8 4869   7.203   1.368  10.752
    88G11  C0E7 4870   7.229   1.319  10.613
    88G11  C0EB 4871   7.148   1.363  10.506
    88G11  C0EF 4872   7.148   1.323  10.364
    88G11  C0EE 4873   7.134   1.185  10.326
    88G11  C0FD 4874   7.023   1.138  10.248
    88G11  C0FE 4875   6.930   1.221  10.181
    88G11  H01B 4876   6.927   1.328  10.191
    88G11  C0FF 4877   6.825   1.174  10.099
    88G11  H01A 4878   6.754   1.243  10.057
    88G11  C0FG 4879   6.810   1.034  10.086
    88G11  H018 4880   6.721   1.013  10.029
    88G11  C0FH 4881   6.900   0.948  10.159
    88G11  C0FI 4882   6.885   0.803  10.172
    88G11  H019 4883   6.805   0.747  10.127
    88G11  O00K 4884   6.979   0.721  10.232
    88G11  C0FL 4885   7.089   0.778  10.282
    88G11  C0FK 4886   7.109   0.916  10.291
    88G11  C0FM 4887   7.222   0.964  10.352
    88G11  C0FN 4888   7.325   0.876  10.380
    88G11  C0FP 4889   7.302   0.740  10.377
    88G11  C0GO 4890   7.394   0.654  10.428
    88G11  C0GN 4891   7.359   0.532  10.478
    88G11  C0GR 4892   7.226   0.486  10.454
    88G11  C0GS 4893   7.187   0.367  10.506
    88G11  H01Q 4894   7.092   0.323  10.481
    88G11  C0GT 4895   7.264   0.304  10.601
    88G11  H01O 4896   7.238   0.210  10.647
    88G11  C0GU 4897   7.392   0.356  10.637
    88G11  H01P 4898   7.454   0.308  10.712
    88G11  O00L 4899   7.147   0.552  10.363
    88G11  C0GM 4900   7.442   0.469  10.570
    88G11  C0GL 4901   7.570   0.524  10.597
    88G11  H01R 4902   7.631   0.482  10.676
    88G11  C0GK 4903   7.614   0.638  10.528
    88G11  C0GP 4904   7.726   0.727  10.544
    88G11  C0E2 4905   7.692   0.852  10.469
    88G11  C0E1 4906   7.746   0.958  10.543
    88G11  C0DU 4907   7.659   1.046  10.607
    88G11  C0DT 4908   7.539   1.101  10.563
    88G11  C0E4 4909   7.453   1.047  10.467
    88G11  C0E5 4910   7.337   1.128  10.464
    88G11  C0DS 4911   7.464   1.193  10.633
    88G11  C0DR 4912   7.508   1.225  10.761
    88G11  C0DD 4913   7.433   1.285  10.863
    88G11  C0DC 4914   7.524   1.270  10.986
    88G11  C0DP 4915   7.650   1.208  10.958
    88G11  C0DA 4916   7.769   1.199  11.040
    88G11  C0D9 4917   7.794   1.251  11.182
    88G11  C0CR 4918   7.931   1.256  11.231
    88G11  C0C0 4919   8.039   1.207  11.163
    88G11  C0BZ 4920   8.174   1.220  11.192
    88G11  C0C1 4921   8.270   1.165  11.112
    88G11  C0C7 4922   8.402   1.195  11.144
    88G11  C0C6 4923   8.505   1.163  11.050
    88G11  C0C9 4924   8.631   1.202  11.077
    88G11  C0B8 4925   8.734   1.177  10.982
    88G11  C0B7 4926   8.864   1.211  11.000
    88G11  C0B6 4927   8.975   1.207  10.903
    88G11  C0B5 4928   8.944   1.254  10.769
    88G11  H00Z 4929   8.850   1.246  10.717
    88G11  C0B4 4930   9.064   1.324  10.726
    88G11  H010 4931   9.077   1.383  10.637
    88G11  C0B3 4932   9.164   1.315  10.830
    88G11  C0AP 4933   9.255   1.407  10.895
    88G11  C0AQ 4934   9.237   1.382  11.032
    88G11  C0AR 4935   9.253   1.484  11.133
    88G11  C0AS 4936   9.168   1.485  11.239
    88G11  C0AT 4937   9.058   1.406  11.248
    88G11  C0BA 4938   9.029   1.313  11.147
    88G11  C0AU 4939   8.957   1.428  11.343
    88G11  C0BE 4940   8.834   1.384  11.330
    88G11  C0BI 4941   8.733   1.432  11.410
    88G11  C0BJ 4942   8.759   1.527  11.509
    88G11  C0BK 4943   8.659   1.573  11.589
    88G11  C0BW 4944   8.528   1.528  11.568
    88G11  C0BV 4945   8.501   1.446  11.462
    88G11  C0BU 4946   8.369   1.409  11.442
    88G11  C0BX 4947   8.335   1.331  11.335
    88G11  C0BT 4948   8.265   1.460  11.518
    88G11  C0CD 4949   8.133   1.423  11.495
    88G11  C0CB 4950   8.100   1.350  11.383
    88G11  C0CE 4951   8.028   1.457  11.583
    88G11  C0CK 4952   8.063   1.536  11.694
    88G11  C0BS 4953   8.193   1.583  11.711
    88G11  C0CJ 4954   8.227   1.664  11.824
    88G11  C0BP 4955   8.363   1.702  11.846
    88G11  C0CI 4956   8.390   1.797  11.943
    88G11  C0CH 4957   8.531   1.828  11.972
    88G11  H012 4958   8.550   1.896  12.054
    88G11  C0BN 4959   8.630   1.795  11.879
    88G11  C0CG 4960   8.759   1.850  11.884
    88G11  C0CF 4961   8.799   1.943  11.987
    88G11  H013 4962   8.723   1.988  12.050
    88G11  O00G 4963   8.928   1.987  12.002
    88G11  C0AA 4964   8.999   1.985  11.883
    88G11  C0A9 4965   9.103   2.071  11.874
    88G11  H00U 4966   9.141   2.132  11.955
    88G11  C0A8 4967   9.182   2.066  11.761
    88G11  H00V 4968   9.267   2.134  11.763
    88G11  C0A7 4969   9.165   1.975  11.654
    88G11  C0A6 4970   9.055   1.881  11.670
    88G11  C0A5 4971   9.033   1.764  11.594
    88G11  C0A4 4972   9.128   1.724  11.494
    88G11  C0A3 4973   9.232   1.781  11.422
    88G11  C0A2 4974   9.263   1.918  11.425
    88G11  C0A1 4975   9.362   1.972  11.339
    88G11  C0A0 4976   9.430   1.939  11.216
    88G11  C09Z 4977   9.518   2.042  11.167
    88G11  C09Y 4978   9.571   2.032  11.040
    88G11  H00Y 4979   9.641   2.105  11.003
    88G11  C09X 4980   9.546   1.917  10.960
    88G11  C09W 4981   9.608   1.911  10.835
    88G11  H00R 4982   9.687   1.980  10.810
    88G11  C0AX 4983   9.591   1.797  10.751
    88G11  H00S 4984   9.654   1.786  10.663
    88G11  C0AW 4985   9.502   1.703  10.790
    88G11  H00T 4986   9.495   1.622  10.719
    88G11  C0AN 4987   9.440   1.706  10.918
    88G11  C0AO 4988   9.359   1.604  10.962
    88G11  C0AM 4989   9.460   1.814  11.008
    88G11  C0B2 4990   9.556   2.164  11.233
    88G11  O00D 4991   9.642   2.245  11.194
    88G11  C0B1 4992   9.490   2.192  11.352
    88G11  H00W 4993   9.516   2.277  11.413
    88G11  C0AL 4994   9.403   1.823  11.138
    88G11  C0AK 4995   9.327   1.714  11.182
    88G11  C0B0 4996   9.396   2.097  11.401
    88G11  C0AZ 4997   9.320   2.119  11.523
    88G11  H00X 4998   9.311   2.210  11.580
    88G11  C0AJ 4999   9.261   1.702  11.309
    88G11  C0AH 5000   9.107   1.600  11.438
    88G11  C0AE 5001   8.918   1.689  11.606
    88G11  C0AD 5002   8.816   1.727  11.693
    88G11  C0AY 5003   9.249   1.996  11.542
    88G11  C0AB 5004   8.966   1.897  11.776
    88G11  C0AC 5005   8.853   1.820  11.788
    88G11  C0BM 5006   8.592   1.705  11.777
    88G11  C0CM 5007   8.280   1.873  11.994
    88G11  C09M 5008   8.159   1.804  12.018
    88G11  C098 5009   8.093   1.840  12.135
    88G11  C08R 5010   7.966   1.806  12.193
    88G11  C08Q 5011   7.935   1.870  12.314
    88G11  C08P 5012   7.817   1.924  12.381
    88G11  C08Y 5013   7.838   2.032  12.466
    88G11  C097 5014   7.958   2.101  12.470
    88G11  C096 5015   7.933   2.241  12.485
    88G11  C090 5016   7.805   2.244  12.550
    88G11  C095 5017   7.742   2.363  12.593
    88G11  C094 5018   7.626   2.354  12.668
    88G11  C08J 5019   7.530   2.248  12.678
    88G11  C08I 5020   7.405   2.313  12.688
    88G11  C08H 5021   7.304   2.217  12.646
    88G11  C08G 5022   7.371   2.115  12.563
    88G11  C08F 5023   7.336   2.004  12.480
    88G11  C08E 5024   7.200   1.962  12.467
    88G11  C059 5025   7.094   1.992  12.558
    88G11  C058 5026   6.961   1.957  12.529
    88G11  C057 5027   6.850   1.990  12.602
    88G11  C056 5028   6.882   2.056  12.721
    88G11  C055 5029   7.006   2.063  12.780
    88G11  C054 5030   7.008   2.173  12.863
    88G11  C053 5031   6.869   2.231  12.875
    88G11  C052 5032   6.827   2.360  12.930
    88G11  C051 5033   6.921   2.468  12.972
    88G11  C05U 5034   7.067   2.459  12.976
    88G11  C05T 5035   7.160   2.368  12.912
    88G11  C06K 5036   7.287   2.416  12.960
    88G11  H00J 5037   7.377   2.357  12.948
    88G11  C06L 5038   7.278   2.538  13.036
    88G11  H00I 5039   7.361   2.597  13.070
    88G11  C05V 5040   7.141   2.564  13.034
    88G11  C06J 5041   7.083   2.677  13.082
    88G11  H00K 5042   7.146   2.756  13.120
    88G11  C05X 5043   6.945   2.694  13.086
    88G11  C06I 5044   6.872   2.808  13.132
    88G11  H00L 5045   6.922   2.887  13.186
    88G11  C04Z 5046   6.733   2.826  13.142
    88G11  C06H 5047   6.675   2.942  13.207
    88G11  H00H 5048   6.733   3.022  13.252
    88G11  C04Y 5049   6.535   2.942  13.219
    88G11  C06G 5050   6.473   3.041  13.301
    88G11  O009 5051   6.520   3.136  13.360
    88G11  O008 5052   6.332   3.050  13.296
    88G11  C04P 5053   6.253   2.962  13.228
    88G11  C04J 5054   6.113   2.978  13.209
    88G11  C04Q 5055   6.023   3.060  13.274
    88G11  H00E 5056   6.065   3.128  13.346
    88G11  C04M 5057   5.888   3.072  13.241
    88G11  C04R 5058   5.793   3.172  13.299
    88G11  H00F 5059   5.819   3.234  13.383
    88G11  C04S 5060   5.669   3.181  13.242
    88G11  H00G 5061   5.606   3.261  13.279
    88G11  O007 5062   5.617   3.105  13.141
    88G11  C03V 5063   5.705   3.012  13.091
    88G11  C03U 5064   5.660   2.930  12.987
    88G11  O006 5065   5.530   2.948  12.949
    88G11  C03F 5066   5.494   2.916  12.822
    88G11  C03E 5067   5.580   2.834  12.746
    88G11  C03D 5068   5.697   2.784  12.802
    88G11  C03C 5069   5.773   2.692  12.733
    88G11  C03B 5070   5.722   2.654  12.608
    88G11  C03A 5071   5.791   2.558  12.539
    88G11  C039 5072   5.906   2.495  12.587
    88G11  C038 5073   5.953   2.415  12.475
    88G11  C037 5074   5.859   2.431  12.375
    88G11  C036 5075   5.848   2.347  12.270
    88G11  C02R 5076   5.776   2.374  12.150
    88G11  C035 5077   5.829   2.279  12.058
    88G11  C03R 5078   5.922   2.197  12.121
    88G11  C03S 5079   6.026   2.135  12.055
    88G11  C049 5080   6.141   2.105  12.124
    88G11  C048 5081   6.150   2.149  12.257
    88G11  C03P 5082   6.056   2.231  12.328
    88G11  C047 5083   6.269   2.113  12.317
    88G11  C046 5084   6.314   2.143  12.443
    88G11  C045 5085   6.258   2.223  12.544
    88G11  C03T 5086   6.147   2.300  12.553
    88G11  C044 5087   6.145   2.368  12.675
    88G11  C043 5088   6.258   2.320  12.752
    88G11  C042 5089   6.310   2.415  12.840
    88G11  C041 5090   6.196   2.510  12.841
    88G11  C040 5091   6.193   2.616  12.929
    88G11  C03Z 5092   6.083   2.703  12.950
    88G11  C04H 5093   6.121   2.794  13.051
    88G11  C04G 5094   6.255   2.773  13.081
    88G11  C03N 5095   5.944   2.718  12.902
    88G11  C03Y 5096   5.871   2.816  12.967
    88G11  C03X 5097   5.919   2.901  13.071
    88G11  C04F 5098   6.306   2.673  13.002
    88G11  C04E 5099   6.446   2.648  13.013
    88G11  C04O 5100   6.520   2.742  13.086
    88G11  C04D 5101   6.503   2.527  12.975
    88G11  C04V 5102   6.642   2.509  12.991
    88G11  C04W 5103   6.729   2.611  13.029
    88G11  C04C 5104   6.447   2.424  12.893
    88G11  C04L 5105   6.564   2.338  12.866
    88G11  C04U 5106   6.564   2.233  12.768
    88G11  C05Q 5107   6.665   2.142  12.744
    88G11  C05P 5108   6.628   2.067  12.636
    88G11  C04T 5109   6.508   2.112  12.585
    88G11  C04B 5110   6.462   2.200  12.673
    88G11  C03M 5111   6.089   2.482  12.744
    88G11  C04A 5112   6.330   2.242  12.665
    88G11  C05H 5113   6.438   2.081  12.462
    88G11  C05G 5114   6.472   2.009  12.346
    88G11  C05F 5115   6.579   1.916  12.341
    88G11  C05E 5116   6.631   1.872  12.211
    88G11  C05L 5117   6.589   1.865  12.071
    88G11  C05K 5118   6.464   1.921  12.026
    88G11  C05J 5119   6.363   1.992  12.105
    88G11  C066 5120   6.437   1.902  11.885
    88G11  C065 5121   6.535   1.839  11.803
    88G11  C064 5122   6.654   1.794  11.855
    88G11  C06N 5123   6.507   1.819  11.665
    88G11  C069 5124   6.402   1.885  11.608
    88G11  C06P 5125   6.389   1.882  11.471
    88G11  C06R 5126   6.300   1.971  11.404
    88G11  C06B 5127   6.201   2.030  11.480
    88G11  C06S 5128   6.107   2.109  11.417
    88G11  C02G 5129   6.020   2.184  11.500
    88G11  C02F 5130   5.937   2.281  11.440
    88G11  C027 5131   5.948   2.310  11.303
    88G11  C026 5132   5.880   2.414  11.249
    88G11  C00E 5133   5.897   2.451  11.119
    88G11  C00D 5134   5.852   2.577  11.078
    88G11  C00C 5135   5.889   2.618  10.954
    88G11  C00B 5136   5.975   2.549  10.871
    88G11  C015 5137   6.023   2.424  10.912
    88G11  C07F 5138   6.114   2.357  10.834
    88G11  C07E 5139   6.176   2.242  10.883
    88G11  C06W 5140   6.154   2.204  11.016
    88G11  C06V 5141   6.055   2.268  11.093
    88G11  C06X 5142   6.234   2.107  11.073
    88G11  C07B 5143   6.323   2.040  10.991
    88G11  C07C 5144   6.344   2.073  10.857
    88G11  C0FU 5145   6.444   2.011  10.782
    88G11  C0F7 5146   6.469   2.050  10.652
    88G11  C0F6 5147   6.575   1.997  10.585
    88G11  C0F8 5148   6.610   2.048  10.458
    88G11  C0F9 5149   6.717   1.992  10.389
    88G11  C0FA 5150   6.760   2.053  10.271
    88G11  C0FZ 5151   6.685   2.156  10.215
    88G11  C0G0 5152   6.731   2.219  10.102
    88G11  C0GD 5153   6.850   2.175  10.034
    88G11  C0FC 5154   6.914   2.060  10.082
    88G11  C0GH 5155   7.014   1.995  10.005
    88G11  C0EY 5156   7.071   1.871  10.049
    88G11  C0EX 5157   7.168   1.802   9.972
    88G11  C0EW 5158   7.206   1.668  10.007
    88G11  C0FR 5159   7.309   1.605   9.933
    88G11  H01D 5160   7.354   1.511   9.959
    88G11  C0FS 5161   7.371   1.676   9.828
    88G11  H01C 5162   7.439   1.622   9.764
    88G11  C0GJ 5163   7.320   1.798   9.790
    88G11  H01N 5164   7.358   1.833   9.695
    88G11  C0EV 5165   7.146   1.612  10.124
    88G11  C0FT 5166   7.175   1.473  10.152
    88G11  H01E 5167   7.226   1.405  10.086
    88G11  C0EU 5168   7.070   1.693  10.206
    88G11  C0ET 5169   7.035   1.651  10.334
    88G11  C0EI 5170   6.955   1.719  10.421
    88G11  C0F1 5171   6.891   1.832  10.375
    88G11  C0F0 5172   6.930   1.882  10.247
    88G11  C0EH 5173   6.931   1.668  10.554
    88G11  C0EG 5174   7.009   1.562  10.613
    88G11  C0EJ 5175   6.827   1.729  10.624
    88G11  C0F3 5176   6.750   1.835  10.567
    88G11  C0EK 5177   6.800   1.685  10.754
    88G11  C0EL 5178   6.886   1.594  10.822
    88G11  C0EM 5179   6.859   1.576  10.964
    88G11  C0EN 5180   6.740   1.617  11.015
    88G11  C07I 5181   6.738   1.599  11.151
    88G11  C074 5182   6.651   1.666  11.233
    88G11  C073 5183   6.668   1.663  11.369
    88G11  C072 5184   6.578   1.731  11.445
    88G11  C075 5185   6.558   1.747  11.166
    88G11  C076 5186   6.566   1.773  11.029
    88G11  C078 5187   6.493   1.874  10.972
    88G11  C07G 5188   6.472   1.823  11.248
    88G11  C070 5189   6.389   1.918  11.186
    88G11  C07Z 5190   6.863   1.550  11.197
    88G11  C077 5191   6.660   1.708  10.946
    88G11  C0EO 5192   6.690   1.744  10.820
    88G11  C0F4 5193   6.613   1.847  10.765
    88G11  C0EQ 5194   7.076   1.527  10.373
    88G11  C0FQ 5195   7.223   1.865   9.861
    88G11  C0GI 5196   7.172   1.993   9.825
    88G11  H01L 5197   7.218   2.024   9.732
    88G11  C0EZ 5198   7.023   1.814  10.165
    88G11  C0GG 5199   7.069   2.058   9.893
    88G11  C0GF 5200   7.011   2.178   9.857
    88G11  H01M 5201   7.049   2.224   9.767
    88G11  C0GE 5202   6.903   2.236   9.916
    88G11  H01K 5203   6.849   2.320   9.874
    88G11  O00J 5204   6.669   2.328  10.050
    88G11  C0GA 5205   6.570   2.387  10.125
    88G11  C0G9 5206   6.520   2.506  10.076
    88G11  H01H 5207   6.557   2.552   9.985
    88G11  C0G8 5208   6.412   2.567  10.142
    88G11  C0G7 5209   6.353   2.683  10.106
    88G11  H01I 5210   6.396   2.731  10.019
    88G11  O00I 5211   6.238   2.729  10.153
    88G11  C0G6 5212   6.220   2.695  10.284
    88G11  H01J 5213   6.180   2.779  10.339
    88G11  C02D 5214   6.271   2.572  10.331
    88G11  C02C 5215   6.234   2.517  10.457
    88G11  C017 5216   6.133   2.579  10.539
    88G11  C016 5217   6.097   2.533  10.666
    88G11  O001 5218   6.070   2.696  10.495
    88G11  C018 5219   5.987   2.769  10.574
    88G11  C009 5220   5.958   2.729  10.700
    88G11  C008 5221   5.882   2.806  10.798
    88G11  C007 5222   5.830   2.939  10.815
    88G11  C006 5223   5.831   3.029  10.711
    88G11  C005 5224   5.769   3.155  10.715
    88G11  C004 5225   5.715   3.228  10.828
    88G11  C003 5226   5.694   3.192  10.970
    88G11  C002 5227   5.643   3.288  11.062
    88G11  C00P 5228   5.620   3.249  11.196
    88G11  C00O 5229   5.578   3.336  11.296
    88G11  C00N 5230   5.561   3.301  11.430
    88G11  C010 5231   5.526   3.398  11.527
    88G11  C011 5232   5.516   3.366  11.662
    88G11  C01Q 5233   5.499   3.468  11.755
    88G11  C01U 5234   5.483   3.603  11.720
    88G11  C012 5235   5.465   3.631  11.579
    88G11  H000 5236   5.446   3.730  11.541
    88G11  C01V 5237   5.477   3.701  11.818
    88G11  H007 5238   5.469   3.805  11.789
    88G11  O005 5239   5.490   3.674  11.952
    88G11  C01W 5240   5.501   3.545  11.989
    88G11  C031 5241   5.516   3.522  12.128
    88G11  C032 5242   5.538   3.389  12.171
    88G11  H00A 5243   5.547   3.367  12.277
    88G11  C033 5244   5.546   3.291  12.071
    88G11  H00B 5245   5.572   3.190  12.100
    88G11  C01O 5246   5.521   3.309  11.935
    88G11  C01N 5247   5.528   3.205  11.844
    88G11  C01M 5248   5.537   3.055  11.879
    88G11  C01L 5249   5.538   2.954  11.992
    88G11  C01K 5250   5.575   2.829  11.933
    88G11  C01Y 5251   5.596   2.705  11.992
    88G11  C02I 5252   5.594   2.702  12.127
    88G11  C02N 5253   5.659   2.597  12.189
    88G11  C02M 5254   5.663   2.598  12.331
    88G11  C02L 5255   5.597   2.700  12.405
    88G11  C02K 5256   5.522   2.800  12.337
    88G11  C02U 5257   5.446   2.891  12.417
    88G11  C02V 5258   5.444   2.884  12.557
    88G11  C03H 5259   5.347   2.950  12.639
    88G11  H00C 5260   5.255   2.998  12.609
    88G11  C02W 5261   5.380   2.994  12.352
    88G11  C02X 5262   5.401   3.008  12.218
    88G11  C02Y 5263   5.329   3.120  12.186
    88G11  H008 5264   5.317   3.179  12.096
    88G11  C02Z 5265   5.264   3.173  12.316
    88G11  O004 5266   5.207   3.280  12.337
    88G11  O003 5267   5.306   3.088  12.411
    88G11  C02J 5268   5.531   2.812  12.196
    88G11  C01Z 5269   5.651   2.611  11.911
    88G11  C020 5270   5.662   2.631  11.770
    88G11  C01I 5271   5.623   2.744  11.713
    88G11  C01H 5272   5.635   2.780  11.587
    88G11  C00K 5273   5.614   2.913  11.544
    88G11  C01S 5274   5.581   3.008  11.634
    88G11  C014 5275   5.563   3.139  11.602
    88G11  C00J 5276   5.637   2.950  11.416
    88G11  C00I 5277   5.680   2.857  11.328
    88G11  C00H 5278   5.697   2.721  11.368
    88G11  C00G 5279   5.757   2.622  11.287
    88G11  C00S 5280   5.701   2.890  11.200
    88G11  C00T 5281   5.742   2.788  11.126
    88G11  C00U 5282   5.766   2.820  10.992
    88G11  C00R 5283   5.675   3.018  11.149
    88G11  C00L 5284   5.618   3.080  11.375
    88G11  C028 5285   5.680   2.685  11.499
    88G11  C023 5286   5.725   2.560  11.550
    88G11  C024 5287   5.791   2.471  11.470
    88G11  C021 5288   5.717   2.536  11.687
    88G11  C022 5289   5.769   2.426  11.739
    88G11  C02H 5290   5.851   2.340  11.660
    88G11  C030 5291   5.936   2.241  11.718
    88G11  C034 5292   5.924   2.220  11.852
    88G11  C02P 5293   5.759   2.404  11.877
    88G11  C02B 5294   5.699   2.497  11.965
    88G11  C01J 5295   5.581   2.842  11.802
    88G11  C01X 5296   5.485   2.934  12.130
    88G11  C01T 5297   5.564   2.973  11.770
    88G11  H009 5298   5.509   3.600  12.201
    88G11  C01P 5299   5.504   3.437  11.892
    88G11  C01R 5300   5.536   3.235  11.704
    88G11  C00Z 5301   5.497   3.529  11.484
    88G11  O000 5302   5.489   3.556  11.352
    88G11  C00M 5303   5.582   3.173  11.467
    88G11  C00Y 5304   5.554   3.474  11.263
    88G11  C013 5305   5.577   3.513  11.131
    88G11  H001 5306   5.573   3.620  11.117
    88G11  C00Q 5307   5.634   3.112  11.239
    88G11  C001 5308   5.626   3.424  11.029
    88G11  C000 5309   5.663   3.459  10.895
    88G11  H006 5310   5.648   3.561  10.864
    88G11  C00W 5311   5.703   3.056  11.020
    88G11  C01G 5312   5.701   3.365  10.797
    88G11  H005 5313   5.712   3.405  10.698
    88G11  C01C 5314   5.790   3.202  10.581
    88G11  H002 5315   5.772   3.303  10.547
    88G11  C01B 5316   5.857   3.119  10.496
    88G11  C01D 5317   5.908   3.134  10.368
    88G11  H003 5318   5.902   3.222  10.306
    88G11  C01E 5319   5.974   3.026  10.320
    88G11  H004 5320   6.015   3.028  10.220
    88G11  O002 5321   5.982   2.904  10.383
    88G11  C01A 5322   5.875   3.004  10.578
    88G11  C00V 5323   5.759   2.951  10.940
    88G11  C019 5324   5.944   2.891  10.517
    88G11  C02E 5325   6.276   2.389  10.499
    88G11  C0FX 5326   6.376   2.328  10.428
    88G11  C0FW 5327   6.438   2.212  10.478
    88G11  C0GB 5328   6.415   2.388  10.307
    88G11  C0G3 5329   6.234   2.334  10.620
    88G11  C07H 5330   6.294   2.217  10.670
    88G11  C0GC 5331   6.362   2.506  10.254
    88G11  C0G2 5332   6.522   2.323  10.243
    88G11  C0G1 5333   6.585   2.212  10.287
    88G11  C0FB 5334   6.865   1.996  10.198
    88G11  C0F2 5335   6.785   1.884  10.442
    88G11  C0FY 5336   6.543   2.155  10.404
    88G11  C0F5 5337   6.647   1.893  10.638
    88G11  C0FV 5338   6.396   2.153  10.597
    88G11  C079 5339   6.518   1.909  10.841
    88G11  C07A 5340   6.400   1.942  11.051
    88G11  C06Y 5341   6.213   2.073  11.209
    88G11  C07D 5342   6.269   2.178  10.799
    88G11  C01F 5343   6.146   2.409  10.708
    88G11  C00A 5344   6.008   2.606  10.743
    88G11  C00X 5345   5.838   2.737  10.907
    88G11  C00F 5346   5.774   2.659  11.159
    88G11  C029 5347   5.987   2.383  11.041
    88G11  C025 5348   5.806   2.501  11.335
    88G11  C06U 5349   6.036   2.238  11.225
    88G11  C02A 5350   5.859   2.367  11.525
    88G11  C05Y 5351   6.026   2.171  11.638
    88G11  C05Z 5352   6.107   2.080  11.701
    88G11  C060 5353   6.112   2.073  11.838
    88G11  C062 5354   6.217   2.013  11.907
    88G11  C06T 5355   6.116   2.137  11.284
    88G11  C06A 5356   6.201   2.014  11.620
    88G11  C06Z 5357   6.303   1.987  11.269
    88G11  C06Q 5358   6.481   1.811  11.389
    88G11  C068 5359   6.306   1.947  11.684
    88G11  C067 5360   6.320   1.955  11.825
    88G11  C063 5361   6.689   1.815  11.984
    88G11  C06C 5362   6.822   1.784  12.028
    88G11  C06D 5363   6.868   1.813  12.150
    88G11  C06E 5364   7.000   1.815  12.198
    88G11  C07Q 5365   7.093   1.774  12.109
    88G11  C07P 5366   7.053   1.728  11.985
    88G11  C07T 5367   7.143   1.673  11.893
    88G11  C07U 5368   7.104   1.615  11.777
    88G11  C07V 5369   7.199   1.551  11.695
    88G11  C084 5370   7.332   1.551  11.737
    88G11  C08C 5371   7.368   1.602  11.858
    88G11  C08B 5372   7.500   1.595  11.902
    88G11  C08A 5373   7.534   1.658  12.018
    88G11  C089 5374   7.448   1.718  12.103
    88G11  C088 5375   7.498   1.796  12.218
    88G11  C087 5376   7.403   1.860  12.293
    88G11  C086 5377   7.267   1.834  12.268
    88G11  C08X 5378   7.636   1.815  12.243
    88G11  C08T 5379   7.729   1.749  12.152
    88G11  C08D 5380   7.314   1.717  12.064
    88G11  C08U 5381   7.670   1.677  12.046
    88G11  C08V 5382   7.768   1.625  11.963
    88G11  C0CY 5383   7.731   1.559  11.840
    88G11  C0CX 5384   7.833   1.526  11.756
    88G11  C0CW 5385   7.794   1.469  11.642
    88G11  C0CV 5386   7.664   1.442  11.614
    88G11  C0D4 5387   7.561   1.482  11.701
    88G11  C0CU 5388   7.633   1.398  11.490
    88G11  C0CT 5389   7.728   1.355  11.398
    88G11  C0CS 5390   7.863   1.365  11.436
    88G11  C0D6 5391   7.500   1.395  11.459
    88G11  C0EC 5392   7.397   1.442  11.542
    88G11  C07X 5393   7.270   1.455  11.494
    88G11  C0DL 5394   7.466   1.347  11.337
    88G11  C0DK 5395   7.339   1.362  11.295
    88G11  C0DN 5396   7.342   1.322  11.166
    88G11  C0D8 5397   7.555   1.296  11.240
    88G11  C08W 5398   7.894   1.673  11.993
    88G11  C0CQ 5399   7.998   1.649  11.897
    88G11  C093 5400   7.597   1.541  11.818
    88G11  C092 5401   7.429   1.490  11.663
    88G11  C085 5402   7.279   1.668  11.939
    88G11  C07S 5403   7.225   1.770  12.151
    88G11  C06F 5404   7.040   1.852  12.327
    88G11  C07O 5405   6.919   1.727  11.943
    88G11  C07N 5406   6.880   1.686  11.814
    88G11  C05D 5407   6.768   1.841  12.244
    88G11  C05C 5408   6.806   1.871  12.376
    88G11  C05N 5409   6.688   1.926  12.434
    88G11  C05M 5410   6.374   2.034  12.244
    88G11  C05I 5411   6.239   2.038  12.047
    88G11  C061 5412   6.020   2.139  11.916
    88G11  C02Q 5413   5.836   2.302  11.924
    88G11  C02O 5414   5.705   2.494  12.107
    88G11  C03Q 5415   5.940   2.250  12.247
    88G11  C03O 5416   6.057   2.307  12.451
    88G11  C03L 5417   5.967   2.542  12.711
    88G11  C02S 5418   5.766   2.534  12.406
    88G11  C02T 5419   5.616   2.716  12.541
    88G11  C03K 5420   5.901   2.649  12.784
    88G11  C03I 5421   5.548   2.808  12.617
    88G11  C03G 5422   5.368   2.958  12.774
    88G11  H00D 5423   5.297   3.003  12.842
    88G11  C03J 5424   5.742   2.836  12.923
    88G11  C03W 5425   5.840   2.995  13.135
    88G11  C04I 5426   6.049   2.894  13.113
    88G11  C04K 5427   6.323   2.863  13.162
    88G11  C04N 5428   6.459   2.841  13.163
    88G11  C04X 5429   6.659   2.725  13.085
    88G11  C050 5430   6.868   2.588  13.023
    88G11  C05W 5431   6.688   2.397  12.924
    88G11  C05S 5432   7.127   2.246  12.845
    88G11  C05R 5433   6.793   2.140  12.790
    88G11  C05O 5434   6.714   1.990  12.559
    88G11  C05B 5435   6.939   1.884  12.417
    88G11  C05A 5436   7.107   2.069  12.681
    88G11  C07R 5437   7.169   1.885  12.358
    88G11  C08N 5438   7.439   1.948  12.394
    88G11  C08M 5439   7.573   1.975  12.417
    88G11  C08L 5440   7.606   2.079  12.505
    88G11  C091 5441   7.187   2.179  12.726
    88G11  C09K 5442   7.411   2.453  12.659
    88G11  H00M 5443   7.333   2.525  12.643
    88G11  C08K 5444   7.506   2.146  12.584
    88G11  C09J 5445   7.551   2.480  12.656
    88G11  C09I 5446   7.637   2.571  12.574
    88G11  C09L 5447   7.606   2.691  12.501
    88G11  H00N 5448   7.518   2.753  12.512
    88G11  C09Q 5449   7.703   2.740  12.422
    88G11  H00O 5450   7.690   2.843  12.390
    88G11  O00B 5451   7.827   2.682  12.398
    88G11  C09G 5452   7.850   2.551  12.444
    88G11  C09F 5453   7.972   2.481  12.401
    88G11  O00A 5454   8.052   2.572  12.338
    88G11  C09P 5455   8.172   2.519  12.296
    88G11  H00P 5456   8.260   2.581  12.293
    88G11  C09O 5457   8.168   2.388  12.234
    88G11  C09D 5458   8.113   2.294  12.322
    88G11  C09C 5459   8.133   2.148  12.322
    88G11  C09N 5460   8.201   2.062  12.228
    88G11  C09T 5461   8.280   2.104  12.122
    88G11  C09S 5462   8.290   2.239  12.072
    88G11  C0CP 5463   8.348   2.225  11.943
    88G11  C0CN 5464   8.375   2.092  11.907
    88G11  C0CO 5465   8.424   2.064  11.780
    88G11  H014 5466   8.433   1.963  11.742
    88G11  C0CZ 5467   8.453   2.173  11.697
    88G11  H015 5468   8.489   2.150  11.597
    88G11  C0D0 5469   8.421   2.309  11.734
    88G11  C0G5 5470   8.431   2.423  11.646
    88G11  H01F 5471   8.472   2.405  11.548
    88G11  C0G4 5472   8.375   2.538  11.675
    88G11  H01G 5473   8.376   2.614  11.598
    88G11  O00H 5474   8.320   2.567  11.803
    88G11  C0D2 5475   8.318   2.465  11.893
    88G11  C09V 5476   8.262   2.476  12.023
    88G11  H00Q 5477   8.233   2.578  12.043
    88G11  C0D1 5478   8.358   2.335  11.858
    88G11  C09R 5479   8.250   2.366  12.119
    88G11  C09H 5480   7.753   2.493  12.536
    88G11  C09E 5481   8.009   2.339  12.413
    88G11  C09B 5482   8.056   2.059  12.391
    88G11  C08Z 5483   7.742   2.120  12.500
    88G11  C08O 5484   7.676   1.905  12.340
    88G11  C09A 5485   8.064   1.923  12.356
    88G11  C08S 5486   7.870   1.749  12.114
    88G11  C099 5487   8.149   1.924  12.239
    88G11  C09U 5488   8.315   2.014  12.013
    88G11  C0BO 5489   8.460   1.662  11.756
    88G11  C0CL 5490   8.128   1.699  11.917
    88G11  C0D3 5491   7.966   1.572  11.784
    88G11  C0D5 5492   7.894   1.428  11.553
    88G11  C0BR 5493   8.295   1.538  11.624
    88G11  C0BQ 5494   8.429   1.580  11.647
    88G11  C0BL 5495   8.690   1.665  11.692
    88G11  C0AF 5496   8.888   1.582  11.521
    88G11  C0BH 5497   8.604   1.397  11.382
    88G11  C0BG 5498   8.571   1.315  11.274
    88G11  C0BD 5499   8.802   1.306  11.217
    88G11  C0AG 5500   8.982   1.527  11.435
    88G11  C0AI 5501   9.190   1.586  11.330
    88G11  C0AV 5502   9.314   1.602  11.100
    88G11  C0BB 5503   9.134   1.286  11.053
    88G11  O00C 5504   9.330   1.514  10.859
    88G11  C0BC 5505   9.110   1.220  10.928
    88G11  C0B9 5506   8.901   1.273  11.121
    88G11  O00E 5507   8.704   1.100  10.873
    88G11  C0CA 5508   8.584   1.048  10.846
    88G11  O00F 5509   8.572   0.974  10.750
    88G11  C0BF 5510   8.670   1.270  11.189
    88G11  C0C5 5511   8.480   1.083  10.940
    88G11  C0C4 5512   8.348   1.037  10.913
    88G11  H011 5513   8.333   0.978  10.825
    88G11  C0C8 5514   8.437   1.276  11.257
    88G11  C0C2 5515   8.242   1.083  11.007
    88G11  C0C3 5516   8.102   1.064  10.978
    88G11  C0DY 5517   8.044   1.014  10.862
    88G11  H016 5518   8.082   0.954  10.781
    88G11  C0DX 5519   7.906   1.053  10.862
    88G11  C0DW 5520   7.812   0.999  10.768
    88G11  C0BY 5521   8.202   1.301  11.304
    88G11  C0DB 5522   8.008   1.132  11.048
    88G11  C0CC 5523   7.966   1.322  11.354
    88G11  C0D7 5524   7.697   1.301  11.273
    88G11  C0DZ 5525   7.887   1.136  10.978
    88G11  C0DM 5526   7.475   1.283  11.122
    88G11  C0DQ 5527   7.631   1.169  10.815
    88G11  C0DV 5528   7.705   1.082  10.734
    88G11  C0E0 5529   7.826   0.909  10.651
    88G11  C0FO 5530   7.559   0.829  10.418
    88G11  C0E3 5531   7.816   0.761  10.648
    88G11  H017 5532   7.835   0.698  10.733
    88G11  C0GV 5533   7.527   0.698  10.436
    88G11  C0ES 5534   7.453   0.921  10.411
    88G11  C0GQ 5535   7.177   0.684  10.339
    88G11  C0FJ 5536   7.011   0.998  10.229
    88G11  C0ED 5537   7.230   1.103  10.377
    88G11  C0ER 5538   7.135   1.437  10.283
    88G11  C0EP 5539   7.080   1.489  10.504
    88G11  C0E6 5540   7.337   1.222  10.575
    88G11  C0DE 5541   7.287   1.315  10.860
    88G11  C0EA 5542   6.994   1.529  10.749
    88G11  C0DF 5543   7.196   1.303  10.968
    88G11  C080 5544   6.932   1.528  11.076
    88G11  C0DO 5545   7.221   1.333  11.102
    88G11  C0DJ 5546   7.235   1.413  11.370
    88G11  C07K 5547   6.884   1.545  11.336
    88G11  C07W 5548   7.171   1.513  11.567
    88G11  C083 5549   6.972   1.623  11.734
    88G11  C07J 5550   6.788   1.612  11.420
    88G11  C06O 5551   6.597   1.743  11.586
    88G11  C06M 5552   6.746   1.724  11.775
    98G11  C071 5553   6.089   5.874  14.268
    98G11  C07L 5554   6.149   5.849  14.145
    98G11  C07M 5555   6.159   5.719  14.095
    98G11  C07Y 5556   6.209   5.689  13.966
    98G11  C081 5557   6.236   5.797  13.875
    98G11  C082 5558   6.288   5.752  13.747
    98G11  C0DI 5559   6.325   5.839  13.631
    98G11  C0DH 5560   6.331   5.983  13.609
    98G11  C0DG 5561   6.387   6.014  13.479
    98G11  C0E9 5562   6.349   6.111  13.384
    98G11  C0E8 5563   6.369   6.039  13.256
    98G11  C0E7 5564   6.396   6.097  13.130
    98G11  C0EB 5565   6.421   6.237  13.111
    98G11  C0EF 5566   6.512   6.296  13.011
    98G11  C0EE 5567   6.589   6.237  12.907
    98G11  C0FD 5568   6.715   6.293  12.874
    98G11  C0FE 5569   6.789   6.368  12.965
    98G11  H01B 5570   6.750   6.367  13.066
    98G11  C0FF 5571   6.906   6.439  12.934
    98G11  H01A 5572   6.966   6.484  13.012
    98G11  C0FG 5573   6.937   6.447  12.796
    98G11  H018 5574   7.023   6.501  12.760
    98G11  C0FH 5575   6.866   6.371  12.700
    98G11  C0FI 5576   6.885   6.369  12.560
    98G11  H019 5577   6.968   6.425  12.520
    98G11  O00K 5578   6.811   6.299  12.473
    98G11  C0FL 5579   6.708   6.220  12.515
    98G11  C0FK 5580   6.674   6.214  12.652
    98G11  C0FM 5581   6.564   6.133  12.695
    98G11  C0FN 5582   6.494   6.053  12.600
    98G11  C0FP 5583   6.541   6.050  12.466
    98G11  C0GO 5584   6.493   5.958  12.375
    98G11  C0GN 5585   6.532   5.952  12.245
    98G11  C0GR 5586   6.625   6.050  12.201
    98G11  C0GS 5587   6.655   6.061  12.066
    98G11  H01Q 5588   6.720   6.140  12.032
    98G11  C0GT 5589   6.625   5.952  11.983
    98G11  H01O 5590   6.661   5.962  11.882
    98G11  C0GU 5591   6.546   5.848  12.035
    98G11  H01P 5592   6.507   5.774  11.966
    98G11  O00L 5593   6.683   6.141  12.291
    98G11  C0GM 5594   6.494   5.843  12.166
    98G11  C0GL 5595   6.411   5.745  12.227
    98G11  H01R 5596   6.383   5.656  12.173
    98G11  C0GK 5597   6.352   5.765  12.350
    98G11  C0GP 5598   6.276   5.690  12.451
    98G11  C0E2 5599   6.241   5.779  12.554
    98G11  C0E1 5600   6.218   5.708  12.672
    98G11  C0DU 5601   6.266   5.743  12.803
    98G11  C0DT 5602   6.310   5.866  12.844
    98G11  C0E4 5603   6.356   5.970  12.777
    98G11  C0E5 5604   6.422   6.052  12.872
    98G11  C0DS 5605   6.342   5.886  12.979
    98G11  C0DR 5606   6.345   5.770  13.059
    98G11  C0DD 5607   6.375   5.775  13.193
    98G11  C0DC 5608   6.371   5.623  13.225
    98G11  C0DP 5609   6.344   5.536  13.111
    98G11  C0DA 5610   6.324   5.391  13.091
    98G11  C0D9 5611   6.314   5.284  13.196
    98G11  C0CR 5612   6.302   5.144  13.156
    98G11  C0C0 5613   6.299   5.099  13.026
    98G11  C0BZ 5614   6.288   4.969  12.982
    98G11  C0C1 5615   6.285   4.940  12.845
    98G11  C0C7 5616   6.291   4.808  12.803
    98G11  C0C6 5617   6.287   4.772  12.667
    98G11  C0C9 5618   6.308   4.641  12.633
    98G11  C0B8 5619   6.302   4.610  12.496
    98G11  C0B7 5620   6.335   4.477  12.449
    98G11  C0B6 5621   6.331   4.403  12.319
    98G11  C0B5 5622   6.213   4.409  12.238
    98G11  H00Z 5623   6.138   4.487  12.240
    98G11  C0B4 5624   6.204   4.282  12.169
    98G11  H010 5625   6.117   4.238  12.121
    98G11  C0B3 5626   6.316   4.197  12.203
    98G11  C0AP 5627   6.342   4.054  12.243
    98G11  C0AQ 5628   6.409   4.074  12.362
    98G11  C0AR 5629   6.411   3.973  12.464
    98G11  C0AS 5630   6.450   4.018  12.585
    98G11  C0AT 5631   6.446   4.155  12.622
    98G11  C0BA 5632   6.432   4.254  12.528
    98G11  C0AU 5633   6.422   4.191  12.755
    98G11  C0BE 5634   6.397   4.320  12.791
    98G11  C0BI 5635   6.371   4.349  12.924
    98G11  C0BJ 5636   6.376   4.249  13.021
    98G11  C0BK 5637   6.345   4.277  13.151
    98G11  C0BW 5638   6.319   4.405  13.188
    98G11  C0BV 5639   6.309   4.505  13.094
    98G11  C0BU 5640   6.290   4.637  13.131
    98G11  C0BX 5641   6.296   4.738  13.035
    98G11  C0BT 5642   6.273   4.671  13.262
    98G11  C0CD 5643   6.267   4.804  13.302
    98G11  C0CB 5644   6.286   4.905  13.213
    98G11  C0CE 5645   6.245   4.831  13.435
    98G11  C0CK 5646   6.217   4.730  13.525
    98G11  C0BS 5647   6.223   4.595  13.490
    98G11  C0CJ 5648   6.204   4.493  13.581
    98G11  C0BP 5649   6.216   4.362  13.544
    98G11  C0CI 5650   6.172   4.253  13.621
    98G11  C0CH 5651   6.199   4.128  13.580
    98G11  H012 5652   6.164   4.044  13.638
    98G11  C0BN 5653   6.262   4.097  13.461
    98G11  C0CG 5654   6.294   3.965  13.429
    98G11  C0CF 5655   6.308   3.863  13.531
    98G11  H013 5656   6.310   3.892  13.635
    98G11  O00G 5657   6.342   3.733  13.495
    98G11  C0AA 5658   6.354   3.705  13.358
    98G11  C0A9 5659   6.359   3.573  13.328
    98G11  H00U 5660   6.357   3.505  13.412
    98G11  C0A8 5661   6.353   3.531  13.195
    98G11  H00V 5662   6.346   3.424  13.180
    98G11  C0A7 5663   6.341   3.625  13.088
    98G11  C0A6 5664   6.351   3.765  13.121
    98G11  C0A5 5665   6.372   3.874  13.033
    98G11  C0A4 5666   6.401   3.841  12.890
    98G11  C0A3 5667   6.390   3.730  12.798
    98G11  C0A2 5668   6.320   3.610  12.832
    98G11  C0A1 5669   6.289   3.509  12.740
    98G11  C0A0 5670   6.285   3.498  12.591
    98G11  C09Z 5671   6.235   3.373  12.542
    98G11  C09Y 5672   6.243   3.345  12.409
    98G11  H00Y 5673   6.211   3.249  12.372
    98G11  C09X 5674   6.276   3.457  12.316
    98G11  C09W 5675   6.271   3.422  12.180
    98G11  H00R 5676   6.254   3.322  12.143
    98G11  C0AX 5677   6.275   3.522  12.087
    98G11  H00S 5678   6.268   3.508  11.980
    98G11  C0AW 5679   6.278   3.648  12.133
    98G11  H00T 5680   6.267   3.733  12.067
    98G11  C0AN 5681   6.303   3.687  12.264
    98G11  C0AO 5682   6.324   3.818  12.301
    98G11  C0AM 5683   6.303   3.587  12.365
    98G11  C0B2 5684   6.189   3.256  12.622
    98G11  O00D 5685   6.140   3.157  12.572
    98G11  C0B1 5686   6.193   3.276  12.766
    98G11  H00W 5687   6.154   3.192  12.823
    98G11  C0AL 5688   6.313   3.610  12.501
    98G11  C0AK 5689   6.355   3.745  12.531
    98G11  C0B0 5690   6.239   3.396  12.817
    98G11  C0AZ 5691   6.250   3.428  12.955
    98G11  H00X 5692   6.211   3.370  13.037
    98G11  C0AJ 5693   6.393   3.786  12.666
    98G11  C0AH 5694   6.426   3.955  12.811
    98G11  C0AE 5695   6.368   4.011  13.069
    98G11  C0AD 5696   6.341   4.040  13.202
    98G11  C0AY 5697   6.306   3.560  12.961
    98G11  C0AB 5698   6.349   3.799  13.259
    98G11  C0AC 5699   6.324   3.933  13.297
    98G11  C0BM 5700   6.291   4.200  13.374
    98G11  C0CM 5701   6.115   4.286  13.740
    98G11  C09M 5702   6.143   4.406  13.797
    98G11  C098 5703   6.153   4.406  13.941
    98G11  C08R 5704   6.142   4.505  14.047
    98G11  C08Q 5705   6.168   4.473  14.181
    98G11  C08P 5706   6.136   4.525  14.314
    98G11  C08Y 5707   6.129   4.429  14.412
    98G11  C097 5708   6.111   4.297  14.369
    98G11  C096 5709   6.024   4.225  14.441
    98G11  C090 5710   6.017   4.307  14.564
    98G11  C095 5711   5.937   4.278  14.675
    98G11  C094 5712   5.925   4.357  14.791
    98G11  C08J 5713   5.943   4.498  14.807
    98G11  C08I 5714   5.832   4.550  14.883
    98G11  C08H 5715   5.813   4.689  14.857
    98G11  C08G 5716   5.894   4.715  14.735
    98G11  C08F 5717   5.946   4.827  14.653
    98G11  C08E 5718   5.937   4.962  14.705
    98G11  C059 5719   5.905   4.999  14.841
    98G11  C058 5720   5.911   5.138  14.874
    98G11  C057 5721   5.862   5.193  14.998
    98G11  C056 5722   5.824   5.097  15.095
    98G11  C055 5723   5.841   4.965  15.079
    98G11  C054 5724   5.749   4.904  15.164
    98G11  C053 5725   5.669   5.002  15.234
    98G11  C052 5726   5.552   4.992  15.318
    98G11  C051 5727   5.496   4.863  15.338
    98G11  C05U 5728   5.539   4.733  15.278
    98G11  C05T 5729   5.629   4.690  15.168
    98G11  C06K 5730   5.665   4.558  15.199
    98G11  H00J 5731   5.756   4.512  15.163
    98G11  C06L 5732   5.580   4.508  15.302
    98G11  H00I 5733   5.581   4.411  15.350
    98G11  C05V 5734   5.505   4.621  15.350
    98G11  C06J 5735   5.406   4.614  15.447
    98G11  H00K 5736   5.384   4.519  15.493
    98G11  C05X 5737   5.337   4.734  15.483
    98G11  C06I 5738   5.225   4.743  15.572
    98G11  H00L 5739   5.191   4.649  15.611
    98G11  C04Z 5740   5.149   4.856  15.603
    98G11  C06H 5741   5.028   4.850  15.682
    98G11  H00H 5742   4.987   4.757  15.720
    98G11  C04Y 5743   4.958   4.975  15.703
    98G11  C06G 5744   4.831   4.971  15.779
    98G11  O009 5745   4.786   4.863  15.829
    98G11  O008 5746   4.764   5.088  15.783
    98G11  C04P 5747   4.807   5.212  15.735
    98G11  C04J 5748   4.735   5.332  15.742
    98G11  C04Q 5749   4.599   5.347  15.774
    98G11  H00E 5750   4.526   5.271  15.795
    98G11  C04M 5751   4.535   5.472  15.765
    98G11  C04R 5752   4.398   5.493  15.788
    98G11  H00F 5753   4.330   5.413  15.811
    98G11  C04S 5754   4.345   5.612  15.769
    98G11  H00G 5755   4.239   5.630  15.771
    98G11  O007 5756   4.418   5.722  15.744
    98G11  C03V 5757   4.549   5.707  15.716
    98G11  C03U 5758   4.620   5.817  15.672
    98G11  O006 5759   4.548   5.932  15.649
    98G11  C03F 5760   4.610   6.033  15.602
    98G11  C03E 5761   4.741   6.038  15.556
    98G11  C03D 5762   4.819   5.923  15.582
    98G11  C03C 5763   4.950   5.921  15.541
    98G11  C03B 5764   4.998   6.042  15.489
    98G11  C03A 5765   5.127   6.038  15.432
    98G11  C039 5766   5.200   5.918  15.415
    98G11  C038 5767   5.315   5.966  15.335
    98G11  C037 5768   5.303   6.105  15.322
    98G11  C036 5769   5.402   6.172  15.259
    98G11  C02R 5770   5.403   6.304  15.234
    98G11  C035 5771   5.516   6.313  15.142
    98G11  C03R 5772   5.581   6.194  15.123
    98G11  C03S 5773   5.658   6.165  15.014
    98G11  C049 5774   5.684   6.034  14.993
    98G11  C048 5775   5.614   5.939  15.077
    98G11  C03P 5776   5.523   5.971  15.185
    98G11  C047 5777   5.664   5.809  15.054
    98G11  C046 5778   5.636   5.707  15.137
    98G11  C045 5779   5.550   5.683  15.244
    98G11  C03T 5780   5.451   5.764  15.302
    98G11  C044 5781   5.373   5.680  15.381
    98G11  C043 5782   5.447   5.566  15.408
    98G11  C042 5783   5.357   5.460  15.447
    98G11  C041 5784   5.238   5.539  15.485
    98G11  C040 5785   5.132   5.482  15.558
    98G11  C03Z 5786   5.014   5.548  15.599
    98G11  C04H 5787   4.932   5.444  15.643
    98G11  C04G 5788   4.992   5.324  15.632
    98G11  C03N 5789   4.955   5.684  15.596
    98G11  C03Y 5790   4.821   5.687  15.647
    98G11  C03X 5791   4.748   5.576  15.700
    98G11  C04F 5792   5.115   5.339  15.580
    98G11  C04E 5793   5.184   5.215  15.547
    98G11  C04O 5794   5.131   5.091  15.587
    98G11  C04D 5795   5.310   5.212  15.489
    98G11  C04V 5796   5.366   5.089  15.445
    98G11  C04W 5797   5.310   4.962  15.473
    98G11  C04C 5798   5.391   5.314  15.446
    98G11  C04L 5799   5.497   5.248  15.360
    98G11  C04U 5800   5.613   5.319  15.306
    98G11  C05Q 5801   5.711   5.259  15.223
    98G11  C05P 5802   5.774   5.353  15.144
    98G11  C04T 5803   5.710   5.475  15.166
    98G11  C04B 5804   5.615   5.452  15.265
    98G11  C03M 5805   5.247   5.683  15.451
    98G11  C04A 5806   5.540   5.558  15.306
    98G11  C05H 5807   5.712   5.597  15.089
    98G11  C05G 5808   5.794   5.645  14.978
    98G11  C05F 5809   5.890   5.565  14.916
    98G11  C05E 5810   5.928   5.594  14.779
    98G11  C05L 5811   5.936   5.719  14.697
    98G11  C05K 5812   5.889   5.845  14.736
    98G11  C05J 5813   5.807   5.874  14.849
    98G11  C066 5814   5.916   5.952  14.643
    98G11  C065 5815   5.974   5.929  14.521
    98G11  C064 5816   6.007   5.799  14.482
    98G11  C06N 5817   6.005   6.034  14.434
    98G11  C069 5818   5.957   6.168  14.467
    98G11  C06P 5819   5.990   6.272  14.381
    98G11  C06R 5820   5.935   6.401  14.400
    98G11  C06B 5821   5.868   6.420  14.517
    98G11  C06S 5822   5.817   6.551  14.545
    98G11  C02G 5823   5.752   6.580  14.667
    98G11  C02F 5824   5.681   6.700  14.683
    98G11  C027 5825   5.687   6.797  14.582
    98G11  C026 5826   5.605   6.907  14.590
    98G11  C00E 5827   5.603   7.000  14.489
    98G11  C00D 5828   5.507   7.104  14.487
    98G11  C00C 5829   5.487   7.179  14.375
    98G11  C00B 5830   5.558   7.167  14.262
    98G11  C015 5831   5.656   7.066  14.257
    98G11  C07F 5832   5.720   7.035  14.133
    98G11  C07E 5833   5.803   6.922  14.125
    98G11  C06W 5834   5.815   6.837  14.236
    98G11  C06V 5835   5.752   6.860  14.357
    98G11  C06X 5836   5.894   6.720  14.222
    98G11  C07B 5837   5.959   6.689  14.102
    98G11  C07C 5838   5.950   6.774  13.995
    98G11  C0FU 5839   6.011   6.747  13.871
    98G11  C0F7 5840   6.001   6.833  13.762
    98G11  C0F6 5841   6.071   6.806  13.646
    98G11  C0F8 5842   6.065   6.896  13.541
    98G11  C0F9 5843   6.128   6.869  13.425
    98G11  C0FA 5844   6.134   6.970  13.326
    98G11  C0FZ 5845   6.060   7.086  13.345
    98G11  C0G0 5846   6.055   7.182  13.246
    98G11  C0GD 5847   6.137   7.169  13.130
    98G11  C0FC 5848   6.206   7.050  13.110
    98G11  C0GH 5849   6.293   7.030  12.997
    98G11  C0EY 5850   6.355   6.909  12.975
    98G11  C0EX 5851   6.440   6.891  12.868
    98G11  C0EW 5852   6.500   6.768  12.846
    98G11  C0FR 5853   6.589   6.750  12.736
    98G11  H01D 5854   6.647   6.662  12.714
    98G11  C0FS 5855   6.607   6.852  12.646
    98G11  H01C 5856   6.669   6.828  12.561
    98G11  C0GJ 5857   6.546   6.972  12.664
    98G11  H01N 5858   6.561   7.051  12.591
    98G11  C0EV 5859   6.482   6.665  12.940
    98G11  C0FT 5860   6.534   6.537  12.918
    98G11  H01E 5861   6.584   6.520  12.823
    98G11  C0EU 5862   6.398   6.689  13.048
    98G11  C0ET 5863   6.369   6.590  13.143
    98G11  C0EI 5864   6.299   6.598  13.257
    98G11  C0F1 5865   6.246   6.722  13.281
    98G11  C0F0 5866   6.259   6.822  13.188
    98G11  C0EH 5867   6.292   6.493  13.351
    98G11  C0EG 5868   6.327   6.358  13.319
    98G11  C0EJ 5869   6.242   6.522  13.481
    98G11  C0F3 5870   6.193   6.649  13.511
    98G11  C0EK 5871   6.243   6.423  13.585
    98G11  C0EL 5872   6.286   6.291  13.556
    98G11  C0EM 5873   6.282   6.214  13.679
    98G11  C0EN 5874   6.255   6.265  13.804
    98G11  C07I 5875   6.247   6.169  13.901
    98G11  C074 5876   6.187   6.190  14.025
    98G11  C073 5877   6.157   6.083  14.103
    98G11  C072 5878   6.095   6.113  14.227
    98G11  C075 5879   6.142   6.320  14.052
    98G11  C076 5880   6.148   6.419  13.953
    98G11  C078 5881   6.086   6.537  13.964
    98G11  C07G 5882   6.080   6.349  14.171
    98G11  C070 5883   6.027   6.479  14.194
    98G11  C07Z 5884   6.259   6.043  13.846
    98G11  C077 5885   6.201   6.389  13.825
    98G11  C0EO 5886   6.199   6.469  13.714
    98G11  C0F4 5887   6.141   6.591  13.733
    98G11  C0EQ 5888   6.424   6.468  13.121
    98G11  C0FQ 5889   6.462   6.994  12.777
    98G11  C0GI 5890   6.396   7.112  12.798
    98G11  H01L 5891   6.426   7.188  12.728
    98G11  C0EZ 5892   6.338   6.808  13.070
    98G11  C0GG 5893   6.304   7.134  12.903
    98G11  C0GF 5894   6.230   7.252  12.917
    98G11  H01M 5895   6.244   7.326  12.840
    98G11  C0GE 5896   6.154   7.270  13.037
    98G11  H01K 5897   6.103   7.364  13.050
    98G11  O00J 5898   5.966   7.286  13.246
    98G11  C0GA 5899   5.877   7.299  13.348
    98G11  C0G9 5900   5.773   7.389  13.340
    98G11  H01H 5901   5.763   7.454  13.255
    98G11  C0G8 5902   5.671   7.395  13.442
    98G11  C0G7 5903   5.558   7.486  13.448
    98G11  H01I 5904   5.543   7.565  13.376
    98G11  O00I 5905   5.458   7.480  13.535
    98G11  C0G6 5906   5.483   7.401  13.646
    98G11  H01J 5907   5.399   7.393  13.714
    98G11  C02D 5908   5.598   7.314  13.665
    98G11  C02C 5909   5.622   7.243  13.784
    98G11  C017 5910   5.554   7.269  13.904
    98G11  C016 5911   5.584   7.199  14.024
    98G11  O001 5912   5.457   7.362  13.914
    98G11  C018 5913   5.368   7.370  14.014
    98G11  C009 5914   5.404   7.322  14.141
    98G11  C008 5915   5.327   7.334  14.263
    98G11  C007 5916   5.203   7.401  14.301
    98G11  C006 5917   5.098   7.421  14.204
    98G11  C005 5918   4.964   7.452  14.235
    98G11  C004 5919   4.900   7.464  14.367
    98G11  C003 5920   4.940   7.417  14.497
    98G11  C002 5921   4.842   7.424  14.601
    98G11  C00P 5922   4.861   7.350  14.718
    98G11  C00O 5923   4.774   7.363  14.827
    98G11  C00N 5924   4.776   7.277  14.933
    98G11  C010 5925   4.673   7.259  15.026
    98G11  C011 5926   4.670   7.160  15.122
    98G11  C01Q 5927   4.556   7.130  15.202
    98G11  C01U 5928   4.447   7.216  15.188
    98G11  C012 5929   4.452   7.324  15.096
    98G11  H000 5930   4.368   7.392  15.091
    98G11  C01V 5931   4.341   7.193  15.280
    98G11  H007 5932   4.249   7.250  15.282
    98G11  O005 5933   4.341   7.089  15.376
    98G11  C01W 5934   4.455   7.013  15.389
    98G11  C031 5935   4.463   6.918  15.496
    98G11  C032 5936   4.581   6.846  15.511
    98G11  H00A 5937   4.587   6.772  15.590
    98G11  C033 5938   4.695   6.871  15.432
    98G11  H00B 5939   4.780   6.807  15.452
    98G11  C01O 5940   4.682   6.954  15.319
    98G11  C01N 5941   4.784   6.975  15.224
    98G11  C01M 5942   4.901   6.881  15.227
    98G11  C01L 5943   4.951   6.749  15.278
    98G11  C01K 5944   5.091   6.748  15.262
    98G11  C01Y 5945   5.164   6.631  15.245
    98G11  C02I 5946   5.106   6.514  15.302
    98G11  C02N 5947   5.185   6.399  15.311
    98G11  C02M 5948   5.122   6.283  15.370
    98G11  C02L 5949   4.986   6.278  15.417
    98G11  C02K 5950   4.909   6.394  15.403
    98G11  C02U 5951   4.772   6.386  15.438
    98G11  C02V 5952   4.722   6.267  15.498
    98G11  C03H 5953   4.586   6.260  15.537
    98G11  H00C 5954   4.517   6.344  15.537
    98G11  C02W 5955   4.687   6.483  15.390
    98G11  C02X 5956   4.743   6.585  15.317
    98G11  C02Y 5957   4.628   6.651  15.266
    98G11  H008 5958   4.631   6.743  15.210
    98G11  C02Z 5959   4.508   6.588  15.321
    98G11  O004 5960   4.391   6.627  15.333
    98G11  O003 5961   4.554   6.475  15.375
    98G11  C02J 5962   4.965   6.513  15.341
    98G11  C01Z 5963   5.287   6.641  15.179
    98G11  C020 5964   5.314   6.752  15.096
    98G11  C01I 5965   5.231   6.864  15.102
    98G11  C01H 5966   5.226   6.960  14.999
    98G11  C00K 5967   5.119   7.045  14.984
    98G11  C01S 5968   5.012   7.037  15.072
    98G11  C014 5969   4.893   7.105  15.049
    98G11  C00J 5970   5.106   7.120  14.872
    98G11  C00I 5971   5.212   7.123  14.784
    98G11  C00H 5972   5.323   7.036  14.796
    98G11  C00G 5973   5.423   7.025  14.696
    98G11  C00S 5974   5.193   7.198  14.670
    98G11  C00T 5975   5.301   7.195  14.582
    98G11  C00U 5976   5.285   7.270  14.470
    98G11  C00R 5977   5.076   7.271  14.638
    98G11  C00L 5978   4.994   7.205  14.855
    98G11  C028 5979   5.326   6.952  14.904
    98G11  C023 5980   5.424   6.846  14.906
    98G11  C024 5981   5.515   6.828  14.800
    98G11  C021 5982   5.414   6.745  15.003
    98G11  C022 5983   5.497   6.634  14.995
    98G11  C02H 5984   5.582   6.619  14.891
    98G11  C030 5985   5.650   6.497  14.867
    98G11  C034 5986   5.629   6.392  14.957
    98G11  C02P 5987   5.471   6.529  15.079
    98G11  C02B 5988   5.363   6.526  15.175
    98G11  C01J 5989   5.129   6.865  15.195
    98G11  C01X 5990   4.883   6.621  15.308
    98G11  C01T 5991   5.017   6.939  15.176
    98G11  H009 5992   4.377   6.884  15.553
    98G11  C01P 5993   4.567   7.034  15.305
    98G11  C01R 5994   4.783   7.079  15.135
    98G11  C00Z 5995   4.561   7.346  15.011
    98G11  O000 5996   4.550   7.436  14.905
    98G11  C00M 5997   4.887   7.197  14.946
    98G11  C00Y 5998   4.648   7.432  14.807
    98G11  C013 5999   4.627   7.505  14.687
    98G11  H001 6000   4.534   7.557  14.670
    98G11  C00Q 6001   4.975   7.277  14.737
    98G11  C001 6002   4.718   7.493  14.584
    98G11  C000 6003   4.683   7.543  14.455
    98G11  H006 6004   4.589   7.591  14.433
    98G11  C00W 6005   5.060   7.342  14.520
    98G11  C01G 6006   4.778   7.526  14.352
    98G11  H005 6007   4.737   7.559  14.258
    98G11  C01C 6008   4.900   7.476  14.106
    98G11  H002 6009   4.797   7.485  14.074
    98G11  C01B 6010   5.005   7.473  14.006
    98G11  C01D 6011   4.992   7.490  13.867
    98G11  H003 6012   4.893   7.499  13.825
    98G11  C01E 6013   5.107   7.485  13.792
    98G11  H004 6014   5.103   7.492  13.684
    98G11  O002 6015   5.232   7.464  13.847
    98G11  C01A 6016   5.128   7.441  14.067
    98G11  C00V 6017   5.171   7.348  14.433
    98G11  C019 6018   5.243   7.434  13.983
    98G11  C02E 6019   5.731   7.153  13.784
    98G11  C0FX 6020   5.810   7.135  13.671
    98G11  C0FW 6021   5.900   7.029  13.666
    98G11  C0GB 6022   5.795   7.216  13.558
    98G11  C0G3 6023   5.753   7.075  13.897
    98G11  C07H 6024   5.849   6.969  13.890
    98G11  C0GC 6025   5.686   7.305  13.553
    98G11  C0G2 6026   5.884   7.202  13.451
    98G11  C0G1 6027   5.977   7.101  13.450
    98G11  C0FB 6028   6.199   6.949  13.204
    98G11  C0F2 6029   6.186   6.744  13.409
    98G11  C0FY 6030   5.980   7.008  13.551
    98G11  C0F5 6031   6.135   6.681  13.633
    98G11  C0FV 6032   5.920   6.946  13.773
    98G11  C079 6033   6.080   6.623  13.855
    98G11  C07A 6034   6.028   6.571  14.089
    98G11  C06Y 6035   5.890   6.622  14.326
    98G11  C07D 6036   5.869   6.890  14.006
    98G11  C01F 6037   5.694   7.106  14.017
    98G11  C00A 6038   5.518   7.233  14.142
    98G11  C00X 6039   5.381   7.271  14.371
    98G11  C00F 6040   5.414   7.112  14.593
    98G11  C029 6041   5.683   6.977  14.375
    98G11  C025 6042   5.517   6.921  14.698
    98G11  C06U 6043   5.760   6.771  14.465
    98G11  C02A 6044   5.594   6.717  14.794
    98G11  C05Y 6045   5.733   6.471  14.755
    98G11  C05Z 6046   5.786   6.343  14.727
    98G11  C060 6047   5.765   6.241  14.821
    98G11  C062 6048   5.796   6.110  14.790
    98G11  C06T 6049   5.822   6.648  14.443
    98G11  C06A 6050   5.853   6.313  14.610
    98G11  C06Z 6051   5.960   6.503  14.307
    98G11  C06Q 6052   6.060   6.247  14.265
    98G11  C068 6053   5.896   6.187  14.588
    98G11  C067 6054   5.870   6.082  14.673
    98G11  C063 6055   5.981   5.692  14.562
    98G11  C06C 6056   6.018   5.559  14.523
    98G11  C06D 6057   5.995   5.446  14.600
    98G11  C06E 6058   6.004   5.311  14.567
    98G11  C07Q 6059   6.033   5.289  14.439
    98G11  C07P 6060   6.069   5.394  14.360
    98G11  C07T 6061   6.111   5.372  14.230
    98G11  C07U 6062   6.152   5.479  14.142
    98G11  C07V 6063   6.194   5.452  14.013
    98G11  C084 6064   6.183   5.321  13.972
    98G11  C08C 6065   6.148   5.219  14.055
    98G11  C08B 6066   6.145   5.090  14.001
    98G11  C08A 6067   6.124   4.988  14.093
    98G11  C089 6068   6.087   5.002  14.222
    98G11  C088 6069   6.069   4.892  14.307
    98G11  C087 6070   6.021   4.915  14.437
    98G11  C086 6071   6.006   5.048  14.481
    98G11  C08X 6072   6.085   4.760  14.257
    98G11  C08T 6073   6.098   4.739  14.113
    98G11  C08D 6074   6.081   5.131  14.268
    98G11  C08U 6075   6.114   4.857  14.039
    98G11  C08V 6076   6.143   4.826  13.913
    98G11  C0CY 6077   6.167   4.930  13.823
    98G11  C0CX 6078   6.192   4.892  13.696
    98G11  C0CW 6079   6.225   4.994  13.606
    98G11  C0CV 6080   6.236   5.129  13.655
    98G11  C0D4 6081   6.211   5.158  13.788
    98G11  C0CU 6082   6.271   5.227  13.569
    98G11  C0CT 6083   6.287   5.201  13.428
    98G11  C0CS 6084   6.276   5.071  13.386
    98G11  C0D6 6085   6.281   5.351  13.620
    98G11  C0EC 6086   6.248   5.387  13.751
    98G11  C07X 6087   6.258   5.518  13.800
    98G11  C0DL 6088   6.312   5.448  13.531
    98G11  C0DK 6089   6.327   5.581  13.579
    98G11  C0DN 6090   6.363   5.657  13.476
    98G11  C0D8 6091   6.340   5.435  13.398
    98G11  C08W 6092   6.133   4.689  13.885
    98G11  C0CQ 6093   6.171   4.653  13.750
    98G11  C093 6094   6.170   5.059  13.872
    98G11  C092 6095   6.216   5.290  13.839
    98G11  C085 6096   6.117   5.237  14.187
    98G11  C07S 6097   6.041   5.157  14.397
    98G11  C06F 6098   5.972   5.201  14.652
    98G11  C07O 6099   6.064   5.532  14.400
    98G11  C07N 6100   6.079   5.633  14.307
    98G11  C05D 6101   5.959   5.469  14.727
    98G11  C05C 6102   5.937   5.367  14.817
    98G11  C05N 6103   5.897   5.422  14.937
    98G11  C05M 6104   5.762   5.779  14.953
    98G11  C05I 6105   5.764   6.004  14.879
    98G11  C061 6106   5.688   6.269  14.934
    98G11  C02Q 6107   5.546   6.420  15.062
    98G11  C02O 6108   5.311   6.413  15.241
    98G11  C03Q 6109   5.505   6.107  15.188
    98G11  C03O 6110   5.429   5.894  15.266
    98G11  C03L 6111   5.155   5.793  15.475
    98G11  C02S 6112   5.186   6.155  15.375
    98G11  C02T 6113   4.930   6.159  15.475
    98G11  C03K 6114   5.022   5.799  15.543
    98G11  C03I 6115   4.799   6.155  15.507
    98G11  C03G 6116   4.527   6.144  15.584
    98G11  H00D 6117   4.423   6.141  15.611
    98G11  C03J 6118   4.756   5.810  15.640
    98G11  C03W 6119   4.615   5.581  15.731
    98G11  C04I 6120   4.804   5.449  15.702
    98G11  C04K 6121   4.933   5.211  15.673
    98G11  C04N 6122   5.009   5.096  15.656
    98G11  C04X 6123   5.199   4.972  15.556
    98G11  C050 6124   5.382   4.855  15.428
    98G11  C05W 6125   5.485   5.109  15.368
    98G11  C05S 6126   5.710   4.785  15.093
    98G11  C05R 6127   5.730   5.125  15.193
    98G11  C05O 6128   5.847   5.328  15.028
    98G11  C05B 6129   5.943   5.232  14.779
    98G11  C05A 6130   5.849   4.918  14.946
    98G11  C07R 6131   5.972   5.067  14.614
    98G11  C08N 6132   5.999   4.803  14.519
    98G11  C08M 6133   6.037   4.675  14.480
    98G11  C08L 6134   6.017   4.568  14.570
    98G11  C091 6135   5.787   4.787  14.960
    98G11  C09K 6136   5.746   4.439  14.920
    98G11  H00M 6137   5.647   4.445  14.965
    98G11  C08K 6138   5.957   4.595  14.700
    98G11  C09J 6139   5.808   4.316  14.867
    98G11  C09I 6140   5.763   4.190  14.803
    98G11  C09L 6141   5.675   4.089  14.857
    98G11  H00N 6142   5.617   4.097  14.948
    98G11  C09Q 6143   5.664   3.974  14.786
    98G11  H00O 6144   5.595   3.894  14.806
    98G11  O00B 6145   5.731   3.967  14.663
    98G11  C09G 6146   5.813   4.063  14.605
    98G11  C09F 6147   5.859   4.028  14.468
    98G11  O00A 6148   5.821   3.906  14.413
    98G11  C09P 6149   5.786   3.918  14.282
    98G11  H00P 6150   5.683   3.910  14.250
    98G11  C09O 6151   5.874   3.986  14.193
    98G11  C09D 6152   5.967   4.078  14.249
    98G11  C09C 6153   6.073   4.155  14.187
    98G11  C09N 6154   6.101   4.182  14.040
    98G11  C09T 6155   6.002   4.155  13.937
    98G11  C09S 6156   5.900   4.056  13.947
    98G11  C0CP 6157   5.866   4.037  13.815
    98G11  C0CN 6158   5.924   4.123  13.726
    98G11  C0CO 6159   5.892   4.116  13.594
    98G11  H014 6160   5.932   4.190  13.526
    98G11  C0CZ 6161   5.823   4.003  13.550
    98G11  H015 6162   5.804   3.994  13.444
    98G11  C0D0 6163   5.760   3.908  13.642
    98G11  C0G5 6164   5.667   3.802  13.612
    98G11  H01F 6165   5.628   3.778  13.514
    98G11  C0G4 6166   5.614   3.728  13.714
    98G11  H01G 6167   5.545   3.648  13.690
    98G11  O00H 6168   5.645   3.729  13.847
    98G11  C0D2 6169   5.729   3.838  13.877
    98G11  C09V 6170   5.769   3.863  14.007
    98G11  H00Q 6171   5.726   3.786  14.068
    98G11  C0D1 6172   5.778   3.927  13.784
    98G11  C09R 6173   5.857   3.969  14.049
    98G11  C09H 6174   5.842   4.170  14.690
    98G11  C09E 6175   5.948   4.111  14.393
    98G11  C09B 6176   6.143   4.255  14.245
    98G11  C08Z 6177   6.049   4.440  14.517
    98G11  C08O 6178   6.084   4.655  14.347
    98G11  C09A 6179   6.214   4.338  14.161
    98G11  C08S 6180   6.101   4.632  14.017
    98G11  C099 6181   6.190   4.298  14.023
    98G11  C09U 6182   6.021   4.195  13.798
    98G11  C0BO 6183   6.268   4.333  13.412
    98G11  C0CL 6184   6.172   4.519  13.712
    98G11  C0D3 6185   6.193   4.758  13.655
    98G11  C0D5 6186   6.248   4.966  13.475
    98G11  C0BR 6187   6.264   4.565  13.358
    98G11  C0BQ 6188   6.286   4.433  13.319
    98G11  C0BL 6189   6.330   4.173  13.246
    98G11  C0AF 6190   6.394   4.117  12.984
    98G11  C0BH 6191   6.340   4.481  12.964
    98G11  C0BG 6192   6.325   4.577  12.863
    98G11  C0BD 6193   6.373   4.418  12.691
    98G11  C0AG 6194   6.426   4.091  12.856
    98G11  C0AI 6195   6.437   3.920  12.680
    98G11  C0AV 6196   6.367   3.841  12.432
    98G11  C0BB 6197   6.430   4.210  12.391
    98G11  O00C 6198   6.310   3.923  12.207
    98G11  C0BC 6199   6.399   4.287  12.280
    98G11  C0B9 6200   6.388   4.388  12.549
    98G11  O00E 6201   6.253   4.701  12.407
    98G11  C0CA 6202   6.260   4.835  12.425
    98G11  O00F 6203   6.252   4.912  12.330
    98G11  C0BF 6204   6.329   4.544  12.729
    98G11  C0C5 6205   6.276   4.868  12.566
    98G11  C0C4 6206   6.283   5.005  12.606
    98G11  H011 6207   6.289   5.083  12.531
    98G11  C0C8 6208   6.306   4.708  12.901
    98G11  C0C2 6209   6.291   5.036  12.745
    98G11  C0C3 6210   6.296   5.168  12.797
    98G11  C0DY 6211   6.297   5.286  12.723
    98G11  H016 6212   6.290   5.317  12.620
    98G11  C0DX 6213   6.310   5.387  12.826
    98G11  C0DW 6214   6.291   5.521  12.783
    98G11  C0BY 6215   6.295   4.867  13.080
    98G11  C0DB 6216   6.298   5.199  12.933
    98G11  C0CC 6217   6.285   5.043  13.251
    98G11  C0D7 6218   6.309   5.304  13.337
    98G11  C0DZ 6219   6.307   5.339  12.961
    98G11  C0DM 6220   6.367   5.571  13.359
    98G11  C0DQ 6221   6.326   5.636  13.011
    98G11  C0DV 6222   6.297   5.629  12.874
    98G11  C0E0 6223   6.241   5.575  12.650
    98G11  C0FO 6224   6.324   5.896  12.540
    98G11  C0E3 6225   6.289   5.560  12.518
    98G11  H017 6226   6.329   5.468  12.478
    98G11  C0GV 6227   6.375   5.891  12.410
    98G11  C0ES 6228   6.379   5.977  12.637
    98G11  C0GQ 6229   6.645   6.140  12.420
    98G11  C0FJ 6230   6.755   6.291  12.738
    98G11  C0ED 6231   6.529   6.143  12.828
    98G11  C0ER 6232   6.501   6.437  13.012
    98G11  C0EP 6233   6.387   6.350  13.191
    98G11  C0E6 6234   6.386   6.019  13.006
    98G11  C0DE 6235   6.379   5.895  13.280
    98G11  C0EA 6236   6.312   6.253  13.417
    98G11  C0DF 6237   6.405   5.893  13.416
    98G11  C080 6238   6.289   6.076  13.710
    98G11  C0DO 6239   6.364   5.789  13.499
    98G11  C0DJ 6240   6.288   5.618  13.712
    98G11  C07K 6241   6.226   5.928  13.927
    98G11  C07W 6242   6.216   5.553  13.929
    98G11  C083 6243   6.125   5.609  14.180
    98G11  C07J 6244   6.181   5.954  14.060
    98G11  C06O 6245   6.069   6.005  14.312
    98G11  C06M 6246   6.054   5.770  14.350
   108G11  C071 6247   0.964   3.090   6.091
   108G11  C07L 6248   1.069   3.177   6.062
   108G11  C07M 6249   1.171   3.138   5.974
   108G11  C07Y 6250   1.275   3.231   5.934
   108G11  C081 6251   1.277   3.367   5.989
   108G11  C082 6252   1.385   3.455   5.943
   108G11  C0DI 6253   1.408   3.598   5.968
   108G11  C0DH 6254   1.331   3.699   6.038
   108G11  C0DG 6255   1.410   3.821   6.050
   108G11  C0E9 6256   1.361   3.959   6.023
   108G11  C0E8 6257   1.484   4.024   5.967
   108G11  C0E7 6258   1.524   4.170   5.958
   108G11  C0EB 6259   1.434   4.269   6.018
   108G11  C0EF 6260   1.467   4.411   6.042
   108G11  C0EE 6261   1.587   4.470   6.090
   108G11  C0FD 6262   1.595   4.558   6.205
   108G11  C0FE 6263   1.483   4.594   6.291
   108G11  H01B 6264   1.382   4.557   6.278
   108G11  C0FF 6265   1.495   4.679   6.396
   108G11  H01A 6266   1.403   4.701   6.446
   108G11  C0FG 6267   1.625   4.718   6.436
   108G11  H018 6268   1.642   4.785   6.519
   108G11  C0FH 6269   1.741   4.683   6.356
   108G11  C0FI 6270   1.871   4.719   6.404
   108G11  H019 6271   1.876   4.767   6.501
   108G11  O00K 6272   1.974   4.699   6.325
   108G11  C0FL 6273   1.963   4.638   6.205
   108G11  C0FK 6274   1.832   4.585   6.161
   108G11  C0FM 6275   1.821   4.510   6.041
   108G11  C0FN 6276   1.930   4.517   5.957
   108G11  C0FP 6277   2.054   4.574   5.994
   108G11  C0GO 6278   2.168   4.560   5.918
   108G11  C0GN 6279   2.294   4.589   5.962
   108G11  C0GR 6280   2.308   4.638   6.100
   108G11  C0GS 6281   2.422   4.672   6.164
   108G11  H01Q 6282   2.420   4.715   6.263
   108G11  C0GT 6283   2.541   4.657   6.087
   108G11  H01O 6284   2.637   4.677   6.132
   108G11  C0GU 6285   2.537   4.619   5.948
   108G11  H01P 6286   2.628   4.620   5.891
   108G11  O00L 6287   2.193   4.655   6.175
   108G11  C0GM 6288   2.412   4.579   5.884
   108G11  C0GL 6289   2.394   4.520   5.755
   108G11  H01R 6290   2.472   4.501   5.683
   108G11  C0GK 6291   2.262   4.492   5.712
   108G11  C0GP 6292   2.200   4.413   5.601
   108G11  C0E2 6293   2.055   4.432   5.607
   108G11  C0E1 6294   1.990   4.313   5.555
   108G11  C0DU 6295   1.897   4.230   5.631
   108G11  C0DT 6296   1.811   4.259   5.735
   108G11  C0E4 6297   1.819   4.369   5.818
   108G11  C0E5 6298   1.714   4.346   5.910
   108G11  C0DS 6299   1.722   4.164   5.789
   108G11  C0DR 6300   1.726   4.035   5.744
   108G11  C0DD 6301   1.670   3.917   5.795
   108G11  C0DC 6302   1.718   3.808   5.712
   108G11  C0DP 6303   1.822   3.852   5.616
   108G11  C0DA 6304   1.908   3.772   5.524
   108G11  C0D9 6305   1.882   3.642   5.463
   108G11  C0CR 6306   1.957   3.602   5.348
   108G11  C0C0 6307   2.065   3.677   5.298
   108G11  C0BZ 6308   2.137   3.644   5.180
   108G11  C0C1 6309   2.241   3.725   5.138
   108G11  C0C7 6310   2.295   3.708   5.010
   108G11  C0C6 6311   2.389   3.797   4.961
   108G11  C0C9 6312   2.440   3.773   4.832
   108G11  C0B8 6313   2.534   3.863   4.781
   108G11  C0B7 6314   2.586   3.852   4.650
   108G11  C0B6 6315   2.695   3.919   4.583
   108G11  C0B5 6316   2.819   3.946   4.656
   108G11  H00Z 6317   2.824   3.930   4.763
   108G11  C0B4 6318   2.927   3.940   4.552
   108G11  H010 6319   3.032   3.933   4.574
   108G11  C0B3 6320   2.868   3.911   4.425
   108G11  C0AP 6321   2.887   3.809   4.323
   108G11  C0AQ 6322   2.760   3.759   4.294
   108G11  C0AR 6323   2.734   3.637   4.227
   108G11  C0AS 6324   2.611   3.587   4.246
   108G11  C0AT 6325   2.544   3.614   4.366
   108G11  C0BA 6326   2.573   3.726   4.436
   108G11  C0AU 6327   2.458   3.525   4.422
   108G11  C0BE 6328   2.404   3.544   4.549
   108G11  C0BI 6329   2.323   3.450   4.608
   108G11  C0BJ 6330   2.297   3.330   4.542
   108G11  C0BK 6331   2.211   3.241   4.598
   108G11  C0BW 6332   2.140   3.272   4.713
   108G11  C0BV 6333   2.167   3.389   4.778
   108G11  C0BU 6334   2.108   3.407   4.904
   108G11  C0BX 6335   2.146   3.521   4.977
   108G11  C0BT 6336   2.015   3.320   4.958
   108G11  C0CD 6337   1.963   3.338   5.086
   108G11  C0CB 6338   1.993   3.458   5.156
   108G11  C0CE 6339   1.876   3.244   5.142
   108G11  C0CK 6340   1.854   3.123   5.077
   108G11  C0BS 6341   1.904   3.102   4.948
   108G11  C0CJ 6342   1.877   2.984   4.880
   108G11  C0BP 6343   1.949   2.963   4.760
   108G11  C0CI 6344   1.923   2.844   4.688
   108G11  C0CH 6345   2.018   2.810   4.596
   108G11  H012 6346   2.022   2.703   4.582
   108G11  C0BN 6347   2.106   2.901   4.535
   108G11  C0CG 6348   2.179   2.865   4.417
   108G11  C0CF 6349   2.157   2.742   4.350
   108G11  H013 6350   2.100   2.661   4.395
   108G11  O00G 6351   2.228   2.711   4.232
   108G11  C0AA 6352   2.322   2.801   4.186
   108G11  C0A9 6353   2.380   2.778   4.061
   108G11  H00U 6354   2.339   2.691   4.012
   108G11  C0A8 6355   2.487   2.858   4.022
   108G11  H00V 6356   2.547   2.826   3.938
   108G11  C0A7 6357   2.538   2.957   4.101
   108G11  C0A6 6358   2.447   3.003   4.205
   108G11  C0A5 6359   2.449   3.134   4.260
   108G11  C0A4 6360   2.532   3.239   4.203
   108G11  C0A3 6361   2.649   3.255   4.117
   108G11  C0A2 6362   2.727   3.145   4.082
   108G11  C0A1 6363   2.849   3.154   4.016
   108G11  C0A0 6364   2.954   3.255   4.000
   108G11  C09Z 6365   3.069   3.219   3.918
   108G11  C09Y 6366   3.179   3.302   3.896
   108G11  H00Y 6367   3.267   3.275   3.840
   108G11  C09X 6368   3.176   3.422   3.966
   108G11  C09W 6369   3.296   3.498   3.960
   108G11  H00R 6370   3.382   3.471   3.901
   108G11  C0AX 6371   3.312   3.612   4.038
   108G11  H00S 6372   3.405   3.666   4.031
   108G11  C0AW 6373   3.210   3.655   4.119
   108G11  H00T 6374   3.230   3.745   4.175
   108G11  C0AN 6375   3.083   3.591   4.112
   108G11  C0AO 6376   2.969   3.644   4.177
   108G11  C0AM 6377   3.067   3.468   4.038
   108G11  C0B2 6378   3.090   3.085   3.870
   108G11  O00D 6379   3.186   3.047   3.805
   108G11  C0B1 6380   2.995   2.984   3.895
   108G11  H00W 6381   3.014   2.885   3.856
   108G11  C0AL 6382   2.948   3.389   4.046
   108G11  C0AK 6383   2.835   3.451   4.111
   108G11  C0B0 6384   2.878   3.024   3.967
   108G11  C0AZ 6385   2.771   2.942   3.992
   108G11  H00X 6386   2.757   2.838   3.967
   108G11  C0AJ 6387   2.706   3.387   4.128
   108G11  C0AH 6388   2.511   3.368   4.247
   108G11  C0AE 6389   2.360   3.174   4.361
   108G11  C0AD 6390   2.276   3.085   4.421
   108G11  C0AY 6391   2.669   3.013   4.065
   108G11  C0AB 6392   2.351   2.918   4.256
   108G11  C0AC 6393   2.267   2.958   4.363
   108G11  C0BM 6394   2.115   3.022   4.593
   108G11  C0CM 6395   1.818   2.758   4.722
   108G11  C09M 6396   1.774   2.759   4.856
   108G11  C098 6397   1.735   2.637   4.912
   108G11  C08R 6398   1.671   2.598   5.030
   108G11  C08Q 6399   1.645   2.460   5.051
   108G11  C08P 6400   1.548   2.378   5.109
   108G11  C08Y 6401   1.531   2.249   5.050
   108G11  C097 6402   1.579   2.224   4.924
   108G11  C096 6403   1.496   2.143   4.845
   108G11  C090 6404   1.410   2.082   4.935
   108G11  C095 6405   1.293   2.011   4.898
   108G11  C094 6406   1.195   1.948   4.991
   108G11  C08J 6407   1.164   1.996   5.121
   108G11  C08I 6408   1.024   2.002   5.133
   108G11  C08H 6409   0.980   2.092   5.235
   108G11  C08G 6410   1.100   2.172   5.277
   108G11  C08F 6411   1.146   2.268   5.375
   108G11  C08E 6412   1.064   2.291   5.489
   108G11  C059 6413   0.957   2.208   5.532
   108G11  C058 6414   0.887   2.236   5.651
   108G11  C057 6415   0.775   2.169   5.699
   108G11  C056 6416   0.726   2.062   5.621
   108G11  C055 6417   0.799   2.005   5.529
   108G11  C054 6418   0.704   1.948   5.440
   108G11  C053 6419   0.570   1.958   5.497
   108G11  C052 6420   0.442   1.919   5.444
   108G11  C051 6421   0.431   1.870   5.305
   108G11  C05U 6422   0.539   1.858   5.210
   108G11  C05T 6423   0.677   1.898   5.199
   108G11  C06K 6424   0.733   1.821   5.090
   108G11  H00J 6425   0.839   1.804   5.086
   108G11  C06L 6426   0.629   1.758   5.018
   108G11  H00I 6427   0.631   1.689   4.935
   108G11  C05V 6428   0.508   1.779   5.093
   108G11  C06J 6429   0.387   1.733   5.057
   108G11  H00K 6430   0.375   1.671   4.969
   108G11  C05X 6431   0.275   1.776   5.130
   108G11  C06I 6432   0.140   1.756   5.095
   108G11  H00L 6433   0.124   1.707   5.000
   108G11  C04Z 6434   0.028   1.800   5.166
   108G11  C06H 6435  -0.106   1.788   5.112
   108G11  H00H 6436  -0.124   1.742   5.016
   108G11  C04Y 6437  -0.216   1.825   5.193
   108G11  C06G 6438  -0.354   1.803   5.140
   108G11  O009 6439  -0.372   1.759   5.028
   108G11  O008 6440  -0.453   1.824   5.231
   108G11  C04P 6441  -0.433   1.886   5.352
   108G11  C04J 6442  -0.545   1.921   5.441
   108G11  C04Q 6443  -0.678   1.902   5.419
   108G11  H00E 6444  -0.703   1.852   5.326
   108G11  C04M 6445  -0.779   1.930   5.516
   108G11  C04R 6446  -0.919   1.902   5.506
   108G11  H00F 6447  -0.962   1.859   5.417
   108G11  C04S 6448  -1.003   1.934   5.609
   108G11  H00G 6449  -1.107   1.919   5.585
   108G11  O007 6450  -0.958   1.994   5.721
   108G11  C03V 6451  -0.830   2.012   5.739
   108G11  C03U 6452  -0.791   2.064   5.862
   108G11  O006 6453  -0.885   2.093   5.958
   108G11  C03F 6454  -0.851   2.153   6.076
   108G11  C03E 6455  -0.717   2.196   6.099
   108G11  C03D 6456  -0.613   2.155   6.012
   108G11  C03C 6457  -0.483   2.190   6.036
   108G11  C03B 6458  -0.461   2.257   6.157
   108G11  C03A 6459  -0.325   2.291   6.189
   108G11  C039 6460  -0.219   2.255   6.105
   108G11  C038 6461  -0.105   2.312   6.173
   108G11  C037 6462  -0.160   2.376   6.288
   108G11  C036 6463  -0.078   2.448   6.371
   108G11  C02R 6464  -0.116   2.539   6.472
   108G11  C035 6465   0.004   2.604   6.506
   108G11  C03R 6466   0.113   2.560   6.431
   108G11  C03S 6467   0.208   2.649   6.372
   108G11  C049 6468   0.290   2.600   6.276
   108G11  C048 6469   0.244   2.482   6.212
   108G11  C03P 6470   0.119   2.418   6.233
   108G11  C047 6471   0.339   2.436   6.122
   108G11  C046 6472   0.324   2.322   6.044
   108G11  C045 6473   0.219   2.235   6.015
   108G11  C03T 6474   0.089   2.251   6.047
   108G11  C044 6475   0.017   2.163   5.969
   108G11  C043 6476   0.107   2.076   5.905
   108G11  C042 6477   0.060   2.030   5.787
   108G11  C041 6478  -0.085   2.056   5.802
   108G11  C040 6479  -0.183   2.029   5.709
   108G11  C03Z 6480  -0.324   2.042   5.728
   108G11  C04H 6481  -0.377   1.991   5.604
   108G11  C04G 6482  -0.279   1.949   5.520
   108G11  C03N 6483  -0.420   2.079   5.829
   108G11  C03Y 6484  -0.555   2.052   5.797
   108G11  C03X 6485  -0.595   2.009   5.670
   108G11  C04F 6486  -0.158   1.983   5.575
   108G11  C04E 6487  -0.040   1.947   5.499
   108G11  C04O 6488  -0.057   1.894   5.367
   108G11  C04D 6489   0.092   1.945   5.548
   108G11  C04V 6490   0.198   1.910   5.465
   108G11  C04W 6491   0.181   1.870   5.328
   108G11  C04C 6492   0.139   1.985   5.673
   108G11  C04L 6493   0.287   1.978   5.659
   108G11  C04U 6494   0.381   2.033   5.747
   108G11  C05Q 6495   0.515   2.060   5.719
   108G11  C05P 6496   0.563   2.153   5.807
   108G11  C04T 6497   0.458   2.200   5.892
   108G11  C04B 6498   0.349   2.120   5.857
   108G11  C03M 6499  -0.116   2.140   5.920
   108G11  C04A 6500   0.230   2.144   5.916
   108G11  C05H 6501   0.448   2.302   5.986
   108G11  C05G 6502   0.537   2.407   6.016
   108G11  C05F 6503   0.673   2.411   5.983
   108G11  C05E 6504   0.756   2.523   5.995
   108G11  C05L 6505   0.749   2.650   6.058
   108G11  C05K 6506   0.638   2.692   6.141
   108G11  C05J 6507   0.518   2.620   6.172
   108G11  C066 6508   0.646   2.828   6.196
   108G11  C065 6509   0.755   2.912   6.167
   108G11  C064 6510   0.861   2.867   6.086
   108G11  C06N 6511   0.754   3.043   6.211
   108G11  C069 6512   0.650   3.089   6.290
   108G11  C06P 6513   0.648   3.225   6.328
   108G11  C06R 6514   0.540   3.277   6.398
   108G11  C06B 6515   0.435   3.195   6.437
   108G11  C06S 6516   0.322   3.249   6.499
   108G11  C02G 6517   0.217   3.164   6.542
   108G11  C02F 6518   0.107   3.213   6.609
   108G11  C027 6519   0.101   3.349   6.640
   108G11  C026 6520  -0.005   3.397   6.710
   108G11  C00E 6521  -0.008   3.535   6.736
   108G11  C00D 6522  -0.126   3.586   6.789
   108G11  C00C 6523  -0.137   3.718   6.801
   108G11  C00B 6524  -0.044   3.809   6.767
   108G11  C015 6525   0.077   3.757   6.712
   108G11  C07F 6526   0.169   3.843   6.664
   108G11  C07E 6527   0.287   3.792   6.608
   108G11  C06W 6528   0.298   3.653   6.581
   108G11  C06V 6529   0.199   3.568   6.627
   108G11  C06X 6530   0.406   3.602   6.511
   108G11  C07B 6531   0.500   3.687   6.465
   108G11  C07C 6532   0.492   3.823   6.490
   108G11  C0FU 6533   0.589   3.906   6.444
   108G11  C0F7 6534   0.573   4.044   6.456
   108G11  C0F6 6535   0.668   4.130   6.399
   108G11  C0F8 6536   0.649   4.267   6.407
   108G11  C0F9 6537   0.742   4.354   6.354
   108G11  C0FA 6538   0.719   4.494   6.354
   108G11  C0FZ 6539   0.613   4.538   6.431
   108G11  C0G0 6540   0.599   4.676   6.450
   108G11  C0GD 6541   0.668   4.767   6.369
   108G11  C0FC 6542   0.773   4.722   6.293
   108G11  C0GH 6543   0.855   4.808   6.217
   108G11  C0EY 6544   0.962   4.756   6.148
   108G11  C0EX 6545   1.046   4.840   6.075
   108G11  C0EW 6546   1.158   4.788   6.019
   108G11  C0FR 6547   1.240   4.867   5.939
   108G11  H01D 6548   1.334   4.835   5.897
   108G11  C0FS 6549   1.209   4.998   5.912
   108G11  H01C 6550   1.278   5.055   5.850
   108G11  C0GJ 6551   1.113   5.061   5.987
   108G11  H01N 6552   1.104   5.168   5.973
   108G11  C0EV 6553   1.191   4.656   6.038
   108G11  C0FT 6554   1.330   4.617   6.037
   108G11  H01E 6555   1.410   4.690   6.031
   108G11  C0EU 6556   1.099   4.566   6.088
   108G11  C0ET 6557   1.124   4.431   6.100
   108G11  C0EI 6558   1.046   4.333   6.152
   108G11  C0F1 6559   0.936   4.385   6.217
   108G11  C0F0 6560   0.906   4.524   6.216
   108G11  C0EH 6561   1.084   4.199   6.140
   108G11  C0EG 6562   1.207   4.150   6.084
   108G11  C0EJ 6563   0.989   4.110   6.205
   108G11  C0F3 6564   0.880   4.164   6.276
   108G11  C0EK 6565   1.012   3.973   6.204
   108G11  C0EL 6566   1.131   3.923   6.138
   108G11  C0EM 6567   1.122   3.778   6.139
   108G11  C0EN 6568   1.020   3.704   6.198
   108G11  C07I 6569   1.029   3.566   6.175
   108G11  C074 6570   0.934   3.473   6.212
   108G11  C073 6571   0.959   3.348   6.177
   108G11  C072 6572   0.859   3.257   6.212
   108G11  C075 6573   0.833   3.528   6.280
   108G11  C076 6574   0.820   3.666   6.303
   108G11  C078 6575   0.717   3.720   6.370
   108G11  C07G 6576   0.740   3.444   6.323
   108G11  C070 6577   0.631   3.500   6.388
   108G11  C07Z 6578   1.143   3.541   6.109
   108G11  C077 6579   0.912   3.757   6.254
   108G11  C0EO 6580   0.912   3.891   6.266
   108G11  C0F4 6581   0.801   3.945   6.328
   108G11  C0EQ 6582   1.245   4.390   6.051
   108G11  C0FQ 6583   1.025   4.984   6.068
   108G11  C0GI 6584   0.911   5.030   6.129
   108G11  H01L 6585   0.894   5.136   6.120
   108G11  C0EZ 6586   0.981   4.613   6.142
   108G11  C0GG 6587   0.826   4.950   6.212
   108G11  C0GF 6588   0.714   4.996   6.286
   108G11  H01M 6589   0.692   5.102   6.290
   108G11  C0GE 6590   0.643   4.903   6.360
   108G11  H01K 6591   0.562   4.950   6.414
   108G11  O00J 6592   0.499   4.733   6.525
   108G11  C0GA 6593   0.416   4.647   6.588
   108G11  C0G9 6594   0.325   4.701   6.671
   108G11  H01H 6595   0.316   4.808   6.678
   108G11  C0G8 6596   0.227   4.625   6.731
   108G11  C0G7 6597   0.123   4.674   6.812
   108G11  H01I 6598   0.119   4.781   6.826
   108G11  O00I 6599   0.025   4.598   6.862
   108G11  C0G6 6600   0.033   4.461   6.840
   108G11  H01J 6601  -0.051   4.417   6.893
   108G11  C02D 6602   0.127   4.401   6.756
   108G11  C02C 6603   0.127   4.260   6.725
   108G11  C017 6604   0.028   4.172   6.774
   108G11  C016 6605   0.042   4.028   6.751
   108G11  O001 6606  -0.089   4.218   6.834
   108G11  C018 6607  -0.201   4.139   6.864
   108G11  C009 6608  -0.189   4.002   6.831
   108G11  C008 6609  -0.291   3.903   6.853
   108G11  C007 6610  -0.435   3.898   6.886
   108G11  C006 6611  -0.515   4.013   6.883
   108G11  C005 6612  -0.655   4.014   6.910
   108G11  C004 6613  -0.743   3.904   6.900
   108G11  C003 6614  -0.735   3.757   6.881
   108G11  C002 6615  -0.849   3.677   6.872
   108G11  C00P 6616  -0.840   3.537   6.858
   108G11  C00O 6617  -0.952   3.454   6.849
   108G11  C00N 6618  -0.943   3.317   6.829
   108G11  C010 6619  -1.054   3.233   6.822
   108G11  C011 6620  -1.049   3.097   6.798
   108G11  C01Q 6621  -1.159   3.011   6.808
   108G11  C01U 6622  -1.281   3.067   6.841
   108G11  C012 6623  -1.291   3.209   6.834
   108G11  H000 6624  -1.390   3.252   6.840
   108G11  C01V 6625  -1.386   2.973   6.867
   108G11  H007 6626  -1.483   3.016   6.883
   108G11  O005 6627  -1.376   2.837   6.852
   108G11  C01W 6628  -1.257   2.784   6.810
   108G11  C031 6629  -1.239   2.645   6.820
   108G11  C032 6630  -1.111   2.587   6.814
   108G11  H00A 6631  -1.097   2.480   6.819
   108G11  C033 6632  -1.000   2.676   6.793
   108G11  H00B 6633  -0.900   2.634   6.794
   108G11  C01O 6634  -1.020   2.817   6.781
   108G11  C01N 6635  -0.913   2.900   6.760
   108G11  C01M 6636  -0.779   2.846   6.730
   108G11  C01L 6637  -0.700   2.729   6.674
   108G11  C01K 6638  -0.568   2.754   6.698
   108G11  C01Y 6639  -0.456   2.689   6.639
   108G11  C02I 6640  -0.485   2.584   6.549
   108G11  C02N 6641  -0.373   2.533   6.482
   108G11  C02M 6642  -0.399   2.428   6.391
   108G11  C02L 6643  -0.533   2.388   6.362
   108G11  C02K 6644  -0.642   2.444   6.433
   108G11  C02U 6645  -0.771   2.405   6.388
   108G11  C02V 6646  -0.793   2.312   6.292
   108G11  C03H 6647  -0.913   2.242   6.287
   108G11  H00C 6648  -0.991   2.258   6.360
   108G11  C02W 6649  -0.879   2.477   6.431
   108G11  C02X 6650  -0.850   2.582   6.515
   108G11  C02Y 6651  -0.961   2.666   6.495
   108G11  H008 6652  -0.977   2.769   6.521
   108G11  C02Z 6653  -1.061   2.596   6.409
   108G11  O004 6654  -1.174   2.628   6.372
   108G11  O003 6655  -1.002   2.486   6.364
   108G11  C02J 6656  -0.623   2.544   6.527
   108G11  C01Z 6657  -0.334   2.759   6.655
   108G11  C020 6658  -0.330   2.886   6.709
   108G11  C01I 6659  -0.440   2.947   6.763
   108G11  C01H 6660  -0.449   3.078   6.796
   108G11  C00K 6661  -0.572   3.140   6.810
   108G11  C01S 6662  -0.687   3.068   6.794
   108G11  C014 6663  -0.810   3.120   6.796
   108G11  C00J 6664  -0.584   3.278   6.828
   108G11  C00I 6665  -0.472   3.354   6.825
   108G11  C00H 6666  -0.347   3.290   6.801
   108G11  C00G 6667  -0.231   3.364   6.794
   108G11  C00S 6668  -0.482   3.490   6.844
   108G11  C00T 6669  -0.362   3.554   6.837
   108G11  C00U 6670  -0.368   3.690   6.862
   108G11  C00R 6671  -0.604   3.558   6.858
   108G11  C00L 6672  -0.705   3.342   6.832
   108G11  C028 6673  -0.336   3.154   6.777
   108G11  C023 6674  -0.218   3.099   6.736
   108G11  C024 6675  -0.109   3.179   6.717
   108G11  C021 6676  -0.217   2.966   6.697
   108G11  C022 6677  -0.104   2.912   6.645
   108G11  C02H 6678   0.006   2.994   6.618
   108G11  C030 6679   0.116   2.949   6.554
   108G11  C034 6680   0.119   2.818   6.514
   108G11  C02P 6681  -0.108   2.784   6.599
   108G11  C02B 6682  -0.223   2.708   6.595
   108G11  C01J 6683  -0.553   2.872   6.767
   108G11  C01X 6684  -0.731   2.623   6.579
   108G11  C01T 6685  -0.677   2.933   6.775
   108G11  H009 6686  -1.324   2.582   6.838
   108G11  C01P 6687  -1.144   2.870   6.792
   108G11  C01R 6688  -0.926   3.041   6.782
   108G11  C00Z 6689  -1.180   3.292   6.837
   108G11  O000 6690  -1.193   3.424   6.845
   108G11  C00M 6691  -0.818   3.260   6.820
   108G11  C00Y 6692  -1.082   3.505   6.855
   108G11  C013 6693  -1.096   3.644   6.871
   108G11  H001 6694  -1.194   3.688   6.863
   108G11  C00Q 6695  -0.718   3.479   6.851
   108G11  C001 6696  -0.978   3.731   6.884
   108G11  C000 6697  -0.990   3.869   6.895
   108G11  H006 6698  -1.088   3.913   6.884
   108G11  C00W 6699  -0.612   3.695   6.867
   108G11  C01G 6700  -0.875   3.951   6.899
   108G11  H005 6701  -0.904   4.054   6.890
   108G11  C01C 6702  -0.688   4.151   6.958
   108G11  H002 6703  -0.779   4.196   6.996
   108G11  C01B 6704  -0.569   4.224   6.949
   108G11  C01D 6705  -0.551   4.364   6.982
   108G11  H003 6706  -0.636   4.425   7.012
   108G11  C01E 6707  -0.429   4.405   6.965
   108G11  H004 6708  -0.404   4.508   6.986
   108G11  O002 6709  -0.319   4.334   6.922
   108G11  C01A 6710  -0.461   4.141   6.907
   108G11  C00V 6711  -0.485   3.763   6.875
   108G11  C019 6712  -0.328   4.202   6.901
   108G11  C02E 6713   0.237   4.205   6.663
   108G11  C0FX 6714   0.337   4.291   6.612
   108G11  C0FW 6715   0.450   4.234   6.544
   108G11  C0GB 6716   0.327   4.425   6.628
   108G11  C0G3 6717   0.258   4.066   6.646
   108G11  C07H 6718   0.369   4.011   6.573
   108G11  C0GC 6719   0.226   4.483   6.708
   108G11  C0G2 6720   0.421   4.505   6.573
   108G11  C0G1 6721   0.527   4.452   6.499
   108G11  C0FB 6722   0.800   4.583   6.288
   108G11  C0F2 6723   0.852   4.301   6.286
   108G11  C0FY 6724   0.541   4.318   6.479
   108G11  C0F5 6725   0.784   4.079   6.336
   108G11  C0FV 6726   0.462   4.097   6.522
   108G11  C079 6727   0.703   3.859   6.382
   108G11  C07A 6728   0.613   3.634   6.412
   108G11  C06Y 6729   0.419   3.467   6.492
   108G11  C07D 6730   0.386   3.873   6.560
   108G11  C01F 6731   0.158   3.979   6.687
   108G11  C00A 6732  -0.067   3.949   6.782
   108G11  C00X 6733  -0.258   3.771   6.844
   108G11  C00F 6734  -0.239   3.501   6.808
   108G11  C029 6735   0.092   3.620   6.696
   108G11  C025 6736  -0.115   3.314   6.739
   108G11  C06U 6737   0.208   3.430   6.597
   108G11  C02A 6738   0.006   3.128   6.655
   108G11  C05Y 6739   0.219   3.031   6.510
   108G11  C05Z 6740   0.326   2.984   6.432
   108G11  C060 6741   0.327   2.855   6.380
   108G11  C062 6742   0.425   2.800   6.301
   108G11  C06T 6743   0.318   3.382   6.530
   108G11  C06A 6744   0.436   3.061   6.402
   108G11  C06Z 6745   0.533   3.411   6.430
   108G11  C06Q 6746   0.750   3.310   6.287
   108G11  C068 6747   0.543   3.007   6.321
   108G11  C067 6748   0.534   2.877   6.269
   108G11  C063 6749   0.859   2.737   6.030
   108G11  C06C 6750   0.966   2.701   5.944
   108G11  C06D 6751   0.966   2.584   5.871
   108G11  C06E 6752   1.052   2.542   5.771
   108G11  C07Q 6753   1.151   2.625   5.741
   108G11  C07P 6754   1.163   2.748   5.804
   108G11  C07T 6755   1.254   2.838   5.768
   108G11  C07U 6756   1.265   2.969   5.827
   108G11  C07V 6757   1.364   3.057   5.792
   108G11  C084 6758   1.447   3.023   5.688
   108G11  C08C 6759   1.439   2.898   5.624
   108G11  C08B 6760   1.513   2.875   5.505
   108G11  C08A 6761   1.490   2.756   5.440
   108G11  C089 6762   1.403   2.659   5.478
   108G11  C088 6763   1.380   2.549   5.395
   108G11  C087 6764   1.286   2.451   5.433
   108G11  C086 6765   1.203   2.481   5.541
   108G11  C08X 6766   1.449   2.531   5.276
   108G11  C08T 6767   1.533   2.642   5.226
   108G11  C08D 6768   1.324   2.684   5.590
   108G11  C08U 6769   1.553   2.744   5.315
   108G11  C08V 6770   1.624   2.844   5.261
   108G11  C0CY 6771   1.651   2.959   5.327
   108G11  C0CX 6772   1.729   3.050   5.267
   108G11  C0CW 6773   1.754   3.166   5.335
   108G11  C0CV 6774   1.694   3.185   5.462
   108G11  C0D4 6775   1.611   3.089   5.520
   108G11  C0CU 6776   1.711   3.312   5.521
   108G11  C0CT 6777   1.782   3.415   5.457
   108G11  C0CS 6778   1.842   3.390   5.332
   108G11  C0D6 6779   1.649   3.324   5.646
   108G11  C0EC 6780   1.559   3.229   5.704
   108G11  C07X 6781   1.471   3.275   5.807
   108G11  C0DL 6782   1.663   3.452   5.698
   108G11  C0DK 6783   1.580   3.486   5.805
   108G11  C0DN 6784   1.595   3.619   5.824
   108G11  C0D8 6785   1.732   3.563   5.644
   108G11  C08W 6786   1.665   2.815   5.135
   108G11  C0CQ 6787   1.745   2.911   5.060
   108G11  C093 6788   1.589   2.974   5.453
   108G11  C092 6789   1.541   3.113   5.639
   108G11  C085 6790   1.337   2.806   5.658
   108G11  C07S 6791   1.232   2.594   5.627
   108G11  C06F 6792   1.025   2.429   5.691
   108G11  C07O 6793   1.070   2.788   5.904
   108G11  C07N 6794   1.072   2.915   5.961
   108G11  C05D 6795   0.868   2.496   5.912
   108G11  C05C 6796   0.852   2.382   5.839
   108G11  C05N 6797   0.735   2.325   5.882
   108G11  C05M 6798   0.477   2.491   6.112
   108G11  C05I 6799   0.408   2.671   6.248
   108G11  C061 6800   0.217   2.772   6.427
   108G11  C02Q 6801   0.012   2.736   6.547
   108G11  C02O 6802  -0.239   2.595   6.513
   108G11  C03Q 6803   0.058   2.469   6.349
   108G11  C03O 6804   0.043   2.328   6.148
   108G11  C03L 6805  -0.240   2.179   5.987
   108G11  C02S 6806  -0.296   2.374   6.298
   108G11  C02T 6807  -0.561   2.300   6.250
   108G11  C03K 6808  -0.376   2.149   5.951
   108G11  C03I 6809  -0.689   2.272   6.214
   108G11  C03G 6810  -0.944   2.169   6.173
   108G11  H00D 6811  -1.043   2.131   6.152
   108G11  C03J 6812  -0.649   2.088   5.896
   108G11  C03W 6813  -0.732   1.988   5.640
   108G11  C04I 6814  -0.511   1.973   5.569
   108G11  C04K 6815  -0.302   1.901   5.397
   108G11  C04N 6816  -0.191   1.876   5.319
   108G11  C04X 6817   0.050   1.857   5.287
   108G11  C050 6818   0.299   1.838   5.256
   108G11  C05W 6819   0.322   1.931   5.524
   108G11  C05S 6820   0.751   1.971   5.308
   108G11  C05R 6821   0.593   2.023   5.617
   108G11  C05O 6822   0.688   2.221   5.799
   108G11  C05B 6823   0.920   2.346   5.724
   108G11  C05A 6824   0.892   2.090   5.467
   108G11  C07R 6825   1.096   2.398   5.574
   108G11  C08N 6826   1.264   2.340   5.350
   108G11  C08M 6827   1.344   2.312   5.241
   108G11  C08L 6828   1.325   2.194   5.162
   108G11  C091 6829   0.873   2.051   5.327
   108G11  C09K 6830   0.971   1.987   5.001
   108G11  H00M 6831   0.873   2.018   4.969
   108G11  C08K 6832   1.205   2.122   5.189
   108G11  C09J 6833   1.074   1.937   4.914
   108G11  C09I 6834   1.105   1.957   4.776
   108G11  C09L 6835   1.024   1.928   4.661
   108G11  H00N 6836   0.918   1.904   4.665
   108G11  C09Q 6837   1.090   1.934   4.546
   108G11  H00O 6838   1.033   1.918   4.456
   108G11  O00B 6839   1.226   1.969   4.529
   108G11  C09G 6840   1.293   2.017   4.637
   108G11  C09F 6841   1.418   2.084   4.603
   108G11  O00A 6842   1.441   2.081   4.467
   108G11  C09P 6843   1.556   2.147   4.425
   108G11  H00P 6844   1.633   2.089   4.376
   108G11  C09O 6845   1.598   2.262   4.494
   108G11  C09D 6846   1.590   2.252   4.638
   108G11  C09C 6847   1.663   2.337   4.735
   108G11  C09N 6848   1.727   2.466   4.724
   108G11  C09T 6849   1.710   2.547   4.614
   108G11  C09S 6850   1.681   2.502   4.481
   108G11  C0CP 6851   1.716   2.610   4.401
   108G11  C0CN 6852   1.754   2.724   4.475
   108G11  C0CO 6853   1.793   2.839   4.404
   108G11  H014 6854   1.828   2.928   4.454
   108G11  C0CZ 6855   1.795   2.831   4.262
   108G11  H015 6856   1.826   2.918   4.206
   108G11  C0D0 6857   1.757   2.716   4.190
   108G11  C0G5 6858   1.746   2.701   4.045
   108G11  H01F 6859   1.763   2.782   3.975
   108G11  C0G4 6860   1.708   2.582   3.994
   108G11  H01G 6861   1.700   2.577   3.886
   108G11  O00H 6862   1.676   2.467   4.055
   108G11  C0D2 6863   1.685   2.479   4.193
   108G11  C09V 6864   1.652   2.370   4.279
   108G11  H00Q 6865   1.618   2.286   4.220
   108G11  C0D1 6866   1.721   2.597   4.259
   108G11  C09R 6867   1.645   2.373   4.425
   108G11  C09H 6868   1.243   1.998   4.766
   108G11  C09E 6869   1.499   2.153   4.698
   108G11  C09B 6870   1.665   2.308   4.864
   108G11  C08Z 6871   1.412   2.169   5.058
   108G11  C08O 6872   1.448   2.411   5.204
   108G11  C09A 6873   1.721   2.407   4.949
   108G11  C08S 6874   1.609   2.689   5.113
   108G11  C099 6875   1.755   2.505   4.855
   108G11  C09U 6876   1.760   2.684   4.617
   108G11  C0BO 6877   2.037   3.056   4.707
   108G11  C0CL 6878   1.794   2.884   4.934
   108G11  C0D3 6879   1.771   3.034   5.135
   108G11  C0D5 6880   1.825   3.268   5.270
   108G11  C0BR 6881   1.987   3.200   4.888
   108G11  C0BQ 6882   2.052   3.179   4.768
   108G11  C0BL 6883   2.203   3.113   4.538
   108G11  C0AF 6884   2.362   3.302   4.421
   108G11  C0BH 6885   2.262   3.474   4.729
   108G11  C0BG 6886   2.298   3.586   4.800
   108G11  C0BD 6887   2.447   3.656   4.628
   108G11  C0AG 6888   2.433   3.406   4.364
   108G11  C0AI 6889   2.612   3.454   4.201
   108G11  C0AV 6890   2.846   3.578   4.162
   108G11  C0BB 6891   2.669   3.814   4.380
   108G11  O00C 6892   2.994   3.749   4.260
   108G11  C0BC 6893   2.727   3.920   4.447
   108G11  C0B9 6894   2.532   3.751   4.569
   108G11  O00E 6895   2.589   3.964   4.851
   108G11  C0CA 6896   2.542   3.991   4.981
   108G11  O00F 6897   2.588   4.093   5.039
   108G11  C0BF 6898   2.396   3.669   4.751
   108G11  C0C5 6899   2.442   3.899   5.036
   108G11  C0C4 6900   2.391   3.925   5.166
   108G11  H011 6901   2.417   4.015   5.220
   108G11  C0C8 6902   2.242   3.607   4.930
   108G11  C0C2 6903   2.292   3.834   5.214
   108G11  C0C3 6904   2.216   3.859   5.332
   108G11  C0DY 6905   2.217   3.975   5.408
   108G11  H016 6906   2.270   4.068   5.392
   108G11  C0DX 6907   2.100   3.962   5.496
   108G11  C0DW 6908   2.046   4.085   5.533
   108G11  C0BY 6909   2.090   3.547   5.100
   108G11  C0DB 6910   2.108   3.783   5.371
   108G11  C0CC 6911   1.928   3.481   5.278
   108G11  C0D7 6912   1.796   3.542   5.516
   108G11  C0DZ 6913   2.027   3.836   5.474
   108G11  C0DM 6914   1.696   3.669   5.734
   108G11  C0DQ 6915   1.828   3.992   5.648
   108G11  C0DV 6916   1.925   4.094   5.608
   108G11  C0E0 6917   2.097   4.224   5.521
   108G11  C0FO 6918   2.027   4.488   5.735
   108G11  C0E3 6919   2.224   4.275   5.573
   108G11  H017 6920   2.320   4.229   5.593
   108G11  C0GV 6921   2.151   4.534   5.784
   108G11  C0ES 6922   1.924   4.463   5.829
   108G11  C0GQ 6923   2.071   4.628   6.125
   108G11  C0FJ 6924   1.721   4.609   6.240
   108G11  C0ED 6925   1.702   4.442   6.013
   108G11  C0ER 6926   1.344   4.481   6.041
   108G11  C0EP 6927   1.291   4.261   6.054
   108G11  C0E6 6928   1.643   4.222   5.890
   108G11  C0DE 6929   1.573   3.918   5.913
   108G11  C0EA 6930   1.237   4.010   6.081
   108G11  C0DF 6931   1.529   3.802   5.985
   108G11  C080 6932   1.202   3.671   6.087
   108G11  C0DO 6933   1.512   3.674   5.920
   108G11  C0DJ 6934   1.479   3.401   5.858
   108G11  C07K 6935   1.171   3.404   6.067
   108G11  C07W 6936   1.368   3.190   5.845
   108G11  C083 6937   1.173   3.009   5.924
   108G11  C07J 6938   1.067   3.311   6.103
   108G11  C06O 6939   0.860   3.130   6.174
   108G11  C06M 6940   0.966   2.955   6.050
   118G11  C071 6941   2.665   6.840  14.452
   118G11  C07L 6942   2.678   6.729  14.540
   118G11  C07M 6943   2.802   6.681  14.579
   118G11  C07Y 6944   2.816   6.569  14.666
   118G11  C081 6945   2.699   6.512  14.728
   118G11  C082 6946   2.722   6.408  14.821
   118G11  C0DI 6947   2.624   6.335  14.900
   118G11  C0DH 6948   2.482   6.326  14.900
   118G11  C0DG 6949   2.433   6.221  14.989
   118G11  C0E9 6950   2.323   6.120  14.979
   118G11  C0E8 6951   2.374   6.006  15.065
   118G11  C0E7 6952   2.307   5.894  15.134
   118G11  C0EB 6953   2.173   5.862  15.089
   118G11  C0EF 6954   2.081   5.758  15.135
   118G11  C0EE 6955   2.057   5.703  15.265
   118G11  C0FD 6956   1.922   5.673  15.301
   118G11  C0FE 6957   1.804   5.752  15.267
   118G11  H01B 6958   1.826   5.849  15.225
   118G11  C0FF 6959   1.679   5.695  15.266
   118G11  H01A 6960   1.593   5.754  15.240
   118G11  C0FG 6961   1.668   5.560  15.305
   118G11  H018 6962   1.575   5.506  15.303
   118G11  C0FH 6963   1.777   5.488  15.351
   118G11  C0FI 6964   1.777   5.354  15.394
   118G11  H019 6965   1.692   5.287  15.400
   118G11  O00K 6966   1.884   5.286  15.446
   118G11  C0FL 6967   2.003   5.352  15.456
   118G11  C0FK 6968   2.016   5.486  15.406
   118G11  C0FM 6969   2.145   5.544  15.414
   118G11  C0FN 6970   2.249   5.478  15.478
   118G11  C0FP 6971   2.232   5.341  15.517
   118G11  C0GO 6972   2.332   5.260  15.559
   118G11  C0GN 6973   2.328   5.121  15.551
   118G11  C0GR 6974   2.205   5.056  15.528
   118G11  C0GS 6975   2.194   4.920  15.509
   118G11  H01Q 6976   2.099   4.871  15.506
   118G11  C0GT 6977   2.308   4.841  15.513
   118G11  H01O 6978   2.287   4.735  15.504
   118G11  C0GU 6979   2.437   4.898  15.533
   118G11  H01P 6980   2.522   4.831  15.533
   118G11  O00L 6981   2.093   5.137  15.516
   118G11  C0GM 6982   2.446   5.040  15.559
   118G11  C0GL 6983   2.574   5.107  15.579
   118G11  H01R 6984   2.669   5.056  15.577
   118G11  C0GK 6985   2.576   5.247  15.591
   118G11  C0GP 6986   2.675   5.352  15.601
   118G11  C0E2 6987   2.605   5.482  15.603
   118G11  C0E1 6988   2.684   5.574  15.523
   118G11  C0DU 6989   2.644   5.657  15.423
   118G11  C0DT 6990   2.517   5.710  15.386
   118G11  C0E4 6991   2.397   5.646  15.408
   118G11  C0E5 6992   2.305   5.703  15.329
   118G11  C0DS 6993   2.500   5.801  15.281
   118G11  C0DR 6994   2.621   5.837  15.213
   118G11  C0DD 6995   2.634   5.933  15.108
   118G11  C0DC 6996   2.778   5.935  15.076
   118G11  C0DP 6997   2.844   5.827  15.139
   118G11  C0DA 6998   2.984   5.782  15.119
   118G11  C0D9 6999   3.098   5.835  15.039
   118G11  C0CR 7000   3.223   5.761  15.030
   118G11  C0C0 7001   3.238   5.636  15.081
   118G11  C0BZ 7002   3.348   5.553  15.058
   118G11  C0C1 7003   3.350   5.419  15.093
   118G11  C0C7 7004   3.453   5.333  15.057
   118G11  C0C6 7005   3.444   5.196  15.075
   118G11  C0C9 7006   3.542   5.112  15.040
   118G11  C0B8 7007   3.523   4.969  15.056
   118G11  C0B7 7008   3.624   4.881  15.013
   118G11  C0B6 7009   3.623   4.732  15.003
   118G11  C0B5 7010   3.512   4.651  14.952
   118G11  H00Z 7011   3.410   4.688  14.958
   118G11  C0B4 7012   3.577   4.532  14.891
   118G11  H010 7013   3.543   4.454  14.824
   118G11  C0B3 7014   3.716   4.532  14.927
   118G11  C0AP 7015   3.845   4.515  14.855
   118G11  C0AQ 7016   3.925   4.627  14.882
   118G11  C0AR 7017   4.024   4.674  14.791
   118G11  C0AS 7018   4.031   4.809  14.792
   118G11  C0AT 7019   3.953   4.898  14.860
   118G11  C0BA 7020   3.859   4.858  14.949
   118G11  C0AU 7021   3.962   5.035  14.832
   118G11  C0BE 7022   3.859   5.122  14.869
   118G11  C0BI 7023   3.865   5.255  14.829
   118G11  C0BJ 7024   3.971   5.299  14.749
   118G11  C0BK 7025   3.972   5.432  14.708
   118G11  C0BW 7026   3.871   5.523  14.748
   118G11  C0BV 7027   3.770   5.479  14.831
   118G11  C0BU 7028   3.673   5.568  14.877
   118G11  C0BX 7029   3.569   5.521  14.955
   118G11  C0BT 7030   3.669   5.699  14.828
   118G11  C0CD 7031   3.558   5.779  14.861
   118G11  C0CB 7032   3.454   5.736  14.943
   118G11  C0CE 7033   3.559   5.907  14.809
   118G11  C0CK 7034   3.666   5.957  14.729
   118G11  C0BS 7035   3.771   5.873  14.692
   118G11  C0CJ 7036   3.875   5.915  14.607
   118G11  C0BP 7037   3.975   5.828  14.573
   118G11  C0CI 7038   4.075   5.871  14.486
   118G11  C0CH 7039   4.188   5.782  14.466
   118G11  H012 7040   4.279   5.824  14.426
   118G11  C0BN 7041   4.176   5.643  14.494
   118G11  C0CG 7042   4.263   5.553  14.444
   118G11  C0CF 7043   4.365   5.597  14.350
   118G11  H013 7044   4.376   5.697  14.310
   118G11  O00G 7045   4.442   5.508  14.288
   118G11  C0AA 7046   4.431   5.372  14.318
   118G11  C0A9 7047   4.526   5.291  14.252
   118G11  H00U 7048   4.603   5.335  14.190
   118G11  C0A8 7049   4.525   5.155  14.279
   118G11  H00V 7050   4.599   5.096  14.227
   118G11  C0A7 7051   4.421   5.093  14.358
   118G11  C0A6 7052   4.331   5.183  14.436
   118G11  C0A5 7053   4.246   5.151  14.543
   118G11  C0A4 7054   4.232   5.008  14.575
   118G11  C0A3 7055   4.260   4.880  14.524
   118G11  C0A2 7056   4.327   4.858  14.407
   118G11  C0A1 7057   4.354   4.729  14.359
   118G11  C0A0 7058   4.298   4.592  14.384
   118G11  C09Z 7059   4.355   4.485  14.309
   118G11  C09Y 7060   4.284   4.362  14.304
   118G11  H00Y 7061   4.318   4.286  14.236
   118G11  C09X 7062   4.171   4.337  14.381
   118G11  C09W 7063   4.107   4.213  14.364
   118G11  H00R 7064   4.118   4.140  14.285
   118G11  C0AX 7065   3.995   4.178  14.440
   118G11  H00S 7066   3.938   4.088  14.423
   118G11  C0AW 7067   3.947   4.274  14.535
   118G11  H00T 7068   3.862   4.251  14.598
   118G11  C0AN 7069   4.021   4.392  14.563
   118G11  C0AO 7070   3.988   4.480  14.670
   118G11  C0AM 7071   4.131   4.430  14.480
   118G11  C0B2 7072   4.469   4.500  14.223
   118G11  O00D 7073   4.513   4.398  14.164
   118G11  C0B1 7074   4.517   4.627  14.196
   118G11  H00W 7075   4.593   4.646  14.122
   118G11  C0AL 7076   4.193   4.558  14.478
   118G11  C0AK 7077   4.147   4.645  14.581
   118G11  C0B0 7078   4.465   4.739  14.268
   118G11  C0AZ 7079   4.496   4.878  14.255
   118G11  H00X 7080   4.567   4.921  14.187
   118G11  C0AJ 7081   4.184   4.785  14.590
   118G11  C0AH 7082   4.142   4.986  14.680
   118G11  C0AE 7083   4.158   5.244  14.599
   118G11  C0AD 7084   4.155   5.378  14.565
   118G11  C0AY 7085   4.413   4.950  14.346
   118G11  C0AB 7086   4.336   5.321  14.411
   118G11  C0AC 7087   4.255   5.421  14.476
   118G11  C0BM 7088   4.073   5.605  14.580
   118G11  C0CM 7089   4.065   5.993  14.418
   118G11  C09M 7090   3.988   6.099  14.474
   118G11  C098 7091   4.027   6.233  14.444
   118G11  C08R 7092   3.954   6.352  14.438
   118G11  C08Q 7093   4.021   6.474  14.402
   118G11  C08P 7094   3.991   6.598  14.323
   118G11  C08Y 7095   4.097   6.641  14.243
   118G11  C097 7096   4.214   6.570  14.225
   118G11  C096 7097   4.265   6.584  14.099
   118G11  C090 7098   4.200   6.701  14.049
   118G11  C095 7099   4.211   6.748  13.912
   118G11  C094 7100   4.139   6.854  13.854
   118G11  C08J 7101   4.027   6.926  13.904
   118G11  C08I 7102   3.944   6.959  13.798
   118G11  C08H 7103   3.808   6.982  13.832
   118G11  C08G 7104   3.799   6.927  13.968
   118G11  C08F 7105   3.694   6.912  14.074
   118G11  C08E 7106   3.572   6.986  14.063
   118G11  C059 7107   3.539   7.099  13.978
   118G11  C058 7108   3.427   7.181  13.994
   118G11  C057 7109   3.390   7.290  13.910
   118G11  C056 7110   3.490   7.333  13.818
   118G11  C055 7111   3.616   7.281  13.819
   118G11  C054 7112   3.675   7.310  13.696
   118G11  C053 7113   3.566   7.361  13.607
   118G11  C052 7114   3.557   7.361  13.459
   118G11  C051 7115   3.654   7.291  13.374
   118G11  C05U 7116   3.775   7.220  13.417
   118G11  C05T 7117   3.815   7.168  13.542
   118G11  C06K 7118   3.954   7.135  13.529
   118G11  H00J 7119   4.011   7.123  13.621
   118G11  C06L 7120   3.985   7.136  13.389
   118G11  H00I 7121   4.073   7.094  13.345
   118G11  C05V 7122   3.873   7.187  13.321
   118G11  C06J 7123   3.865   7.207  13.189
   118G11  H00K 7124   3.952   7.192  13.127
   118G11  C05X 7125   3.748   7.264  13.135
   118G11  C06I 7126   3.724   7.289  13.001
   118G11  H00L 7127   3.796   7.255  12.927
   118G11  C04Z 7128   3.617   7.352  12.945
   118G11  C06H 7129   3.604   7.358  12.797
   118G11  H00H 7130   3.664   7.304  12.725
   118G11  C04Y 7131   3.493   7.435  12.749
   118G11  C06G 7132   3.476   7.439  12.605
   118G11  O009 7133   3.560   7.400  12.524
   118G11  O008 7134   3.360   7.497  12.556
   118G11  C04P 7135   3.265   7.543  12.637
   118G11  C04J 7136   3.141   7.599  12.593
   118G11  C04Q 7137   3.099   7.602  12.463
   118G11  H00E 7138   3.166   7.570  12.384
   118G11  C04M 7139   2.968   7.647  12.423
   118G11  C04R 7140   2.920   7.653  12.285
   118G11  H00F 7141   2.985   7.628  12.203
   118G11  C04S 7142   2.798   7.695  12.263
   118G11  H00G 7143   2.760   7.699  12.162
   118G11  O007 7144   2.709   7.728  12.359
   118G11  C03V 7145   2.752   7.719  12.490
   118G11  C03U 7146   2.656   7.746  12.588
   118G11  O006 7147   2.528   7.770  12.547
   118G11  C03F 7148   2.432   7.783  12.642
   118G11  C03E 7149   2.455   7.751  12.774
   118G11  C03D 7150   2.584   7.719  12.821
   118G11  C03C 7151   2.611   7.691  12.952
   118G11  C03B 7152   2.494   7.688  13.033
   118G11  C03A 7153   2.514   7.659  13.168
   118G11  C039 7154   2.643   7.639  13.230
   118G11  C038 7155   2.609   7.605  13.365
   118G11  C037 7156   2.468   7.610  13.364
   118G11  C036 7157   2.399   7.595  13.481
   118G11  C02R 7158   2.264   7.596  13.506
   118G11  C035 7159   2.264   7.550  13.642
   118G11  C03R 7160   2.390   7.534  13.700
   118G11  C03S 7161   2.423   7.451  13.807
   118G11  C049 7162   2.551   7.421  13.827
   118G11  C048 7163   2.641   7.459  13.727
   118G11  C03P 7164   2.605   7.524  13.599
   118G11  C047 7165   2.772   7.431  13.768
   118G11  C046 7166   2.889   7.475  13.711
   118G11  C045 7167   2.908   7.524  13.580
   118G11  C03T 7168   2.819   7.559  13.481
   118G11  C044 7169   2.898   7.591  13.364
   118G11  C043 7170   3.027   7.614  13.409
   118G11  C042 7171   3.115   7.580  13.300
   118G11  C041 7172   3.026   7.597  13.183
   118G11  C040 7173   3.072   7.621  13.049
   118G11  C03Z 7174   2.985   7.641  12.936
   118G11  C04H 7175   3.068   7.627  12.823
   118G11  C04G 7176   3.191   7.580  12.870
   118G11  C03N 7177   2.843   7.668  12.904
   118G11  C03Y 7178   2.818   7.691  12.765
   118G11  C03X 7179   2.914   7.667  12.663
   118G11  C04F 7180   3.202   7.579  13.009
   118G11  C04E 7181   3.319   7.523  13.068
   118G11  C04O 7182   3.415   7.469  12.982
   118G11  C04D 7183   3.341   7.507  13.205
   118G11  C04V 7184   3.445   7.430  13.258
   118G11  C04W 7185   3.543   7.381  13.171
   118G11  C04C 7186   3.260   7.541  13.315
   118G11  C04L 7187   3.339   7.502  13.435
   118G11  C04U 7188   3.286   7.507  13.569
   118G11  C05Q 7189   3.342   7.446  13.678
   118G11  C05P 7190   3.249   7.428  13.781
   118G11  C04T 7191   3.123   7.472  13.736
   118G11  C04B 7192   3.145   7.512  13.604
   118G11  C03M 7193   2.886   7.609  13.220
   118G11  C04A 7194   3.033   7.554  13.534
   118G11  C05H 7195   2.996   7.447  13.795
   118G11  C05G 7196   2.946   7.376  13.907
   118G11  C05F 7197   3.028   7.312  14.002
   118G11  C05E 7198   2.985   7.222  14.102
   118G11  C05L 7199   2.861   7.170  14.155
   118G11  C05K 7200   2.731   7.208  14.095
   118G11  C05J 7201   2.699   7.297  13.979
   118G11  C066 7202   2.620   7.144  14.160
   118G11  C065 7203   2.636   7.046  14.260
   118G11  C064 7204   2.761   7.007  14.309
   118G11  C06N 7205   2.522   6.980  14.310
   118G11  C069 7206   2.395   7.014  14.263
   118G11  C06P 7207   2.285   6.937  14.303
   118G11  C06R 7208   2.157   6.970  14.261
   118G11  C06B 7209   2.138   7.070  14.170
   118G11  C06S 7210   2.005   7.102  14.128
   118G11  C02G 7211   1.985   7.197  14.031
   118G11  C02F 7212   1.860   7.220  13.982
   118G11  C027 7213   1.746   7.151  14.033
   118G11  C026 7214   1.621   7.171  13.976
   118G11  C00E 7215   1.518   7.095  14.018
   118G11  C00D 7216   1.389   7.112  13.962
   118G11  C00C 7217   1.291   7.035  14.009
   118G11  C00B 7218   1.299   6.947  14.105
   118G11  C015 7219   1.421   6.921  14.157
   118G11  C07F 7220   1.441   6.822  14.252
   118G11  C07E 7221   1.571   6.800  14.302
   118G11  C06W 7222   1.677   6.880  14.264
   118G11  C06V 7223   1.653   6.982  14.174
   118G11  C06X 7224   1.806   6.858  14.304
   118G11  C07B 7225   1.827   6.747  14.388
   118G11  C07C 7226   1.717   6.669  14.430
   118G11  C0FU 7227   1.737   6.562  14.511
   118G11  C0F7 7228   1.632   6.477  14.552
   118G11  C0F6 7229   1.658   6.365  14.633
   118G11  C0F8 7230   1.550   6.282  14.665
   118G11  C0F9 7231   1.571   6.163  14.732
   118G11  C0FA 7232   1.462   6.079  14.764
   118G11  C0FZ 7233   1.333   6.124  14.744
   118G11  C0G0 7234   1.223   6.049  14.787
   118G11  C0GD 7235   1.248   5.920  14.829
   118G11  C0FC 7236   1.382   5.868  14.841
   118G11  C0GH 7237   1.409   5.737  14.877
   118G11  C0EY 7238   1.543   5.691  14.888
   118G11  C0EX 7239   1.571   5.557  14.926
   118G11  C0EW 7240   1.704   5.515  14.950
   118G11  C0FR 7241   1.735   5.378  14.989
   118G11  H01D 7242   1.837   5.350  15.010
   118G11  C0FS 7243   1.626   5.291  15.013
   118G11  H01C 7244   1.635   5.185  15.032
   118G11  C0GJ 7245   1.497   5.336  14.995
   118G11  H01N 7246   1.424   5.261  15.023
   118G11  C0EV 7247   1.804   5.613  14.948
   118G11  C0FT 7248   1.919   5.601  15.029
   118G11  H01E 7249   1.926   5.516  15.095
   118G11  C0EU 7250   1.776   5.741  14.898
   118G11  C0ET 7251   1.873   5.841  14.893
   118G11  C0EI 7252   1.856   5.972  14.856
   118G11  C0F1 7253   1.724   6.005  14.826
   118G11  C0F0 7254   1.617   5.909  14.831
   118G11  C0EH 7255   1.965   6.060  14.846
   118G11  C0EG 7256   2.091   6.037  14.912
   118G11  C0EJ 7257   1.937   6.183  14.793
   118G11  C0F3 7258   1.809   6.219  14.751
   118G11  C0EK 7259   2.043   6.275  14.775
   118G11  C0EL 7260   2.174   6.252  14.826
   118G11  C0EM 7261   2.272   6.348  14.777
   118G11  C0EN 7262   2.238   6.445  14.685
   118G11  C07I 7263   2.345   6.521  14.646
   118G11  C074 7264   2.333   6.629  14.561
   118G11  C073 7265   2.448   6.695  14.526
   118G11  C072 7266   2.427   6.801  14.436
   118G11  C075 7267   2.207   6.655  14.515
   118G11  C076 7268   2.093   6.576  14.552
   118G11  C078 7269   1.966   6.606  14.513
   118G11  C07G 7270   2.190   6.759  14.427
   118G11  C070 7271   2.060   6.792  14.388
   118G11  C07Z 7272   2.459   6.483  14.708
   118G11  C077 7273   2.113   6.472  14.643
   118G11  C0EO 7274   2.015   6.385  14.687
   118G11  C0F4 7275   1.885   6.418  14.644
   118G11  C0EQ 7276   1.992   5.820  14.947
   118G11  C0FQ 7277   1.468   5.464  14.952
   118G11  C0GI 7278   1.337   5.515  14.934
   118G11  H01L 7279   1.261   5.439  14.938
   118G11  C0EZ 7280   1.647   5.778  14.872
   118G11  C0GG 7281   1.300   5.647  14.903
   118G11  C0GF 7282   1.172   5.695  14.883
   118G11  H01M 7283   1.079   5.640  14.876
   118G11  C0GE 7284   1.148   5.829  14.855
   118G11  H01K 7285   1.048   5.860  14.827
   118G11  O00J 7286   1.090   6.092  14.775
   118G11  C0GA 7287   1.073   6.206  14.699
   118G11  C0G9 7288   0.945   6.239  14.659
   118G11  H01H 7289   0.878   6.165  14.700
   118G11  C0G8 7290   0.921   6.350  14.576
   118G11  C0G7 7291   0.790   6.392  14.542
   118G11  H01I 7292   0.708   6.335  14.584
   118G11  O00I 7293   0.766   6.495  14.462
   118G11  C0G6 7294   0.875   6.572  14.421
   118G11  H01J 7295   0.855   6.669  14.378
   118G11  C02D 7296   1.010   6.531  14.440
   118G11  C02C 7297   1.119   6.595  14.378
   118G11  C017 7298   1.094   6.691  14.270
   118G11  C016 7299   1.206   6.776  14.234
   118G11  O001 7300   0.973   6.695  14.208
   118G11  C018 7301   0.956   6.793  14.112
   118G11  C009 7302   1.059   6.885  14.072
   118G11  C008 7303   1.056   6.970  13.961
   118G11  C007 7304   0.968   6.999  13.851
   118G11  C006 7305   0.847   6.932  13.829
   118G11  C005 7306   0.762   6.972  13.726
   118G11  C004 7307   0.785   7.058  13.609
   118G11  C003 7308   0.901   7.130  13.560
   118G11  C002 7309   0.896   7.190  13.430
   118G11  C00P 7310   1.011   7.252  13.372
   118G11  C00O 7311   1.011   7.303  13.242
   118G11  C00N 7312   1.124   7.371  13.189
   118G11  C010 7313   1.128   7.411  13.052
   118G11  C011 7314   1.239   7.473  12.998
   118G11  C01Q 7315   1.242   7.504  12.865
   118G11  C01U 7316   1.132   7.469  12.781
   118G11  C012 7317   1.019   7.411  12.841
   118G11  H000 7318   0.929   7.389  12.786
   118G11  C01V 7319   1.143   7.512  12.647
   118G11  H007 7320   1.052   7.496  12.591
   118G11  O005 7321   1.245   7.593  12.597
   118G11  C01W 7322   1.352   7.618  12.677
   118G11  C031 7323   1.457   7.699  12.622
   118G11  C032 7324   1.562   7.736  12.709
   118G11  H00A 7325   1.634   7.808  12.675
   118G11  C033 7326   1.560   7.696  12.844
   118G11  H00B 7327   1.632   7.735  12.914
   118G11  C01O 7328   1.464   7.610  12.894
   118G11  C01N 7329   1.473   7.555  13.022
   118G11  C01M 7330   1.599   7.563  13.104
   118G11  C01L 7331   1.749   7.602  13.109
   118G11  C01K 7332   1.788   7.576  13.242
   118G11  C01Y 7333   1.915   7.588  13.305
   118G11  C02I 7334   2.019   7.633  13.226
   118G11  C02N 7335   2.145   7.635  13.293
   118G11  C02M 7336   2.259   7.656  13.212
   118G11  C02L 7337   2.244   7.690  13.075
   118G11  C02K 7338   2.114   7.699  13.017
   118G11  C02U 7339   2.101   7.735  12.878
   118G11  C02V 7340   2.214   7.774  12.810
   118G11  C03H 7341   2.207   7.831  12.681
   118G11  H00C 7342   2.111   7.866  12.648
   118G11  C02W 7343   1.987   7.713  12.806
   118G11  C02X 7344   1.884   7.656  12.888
   118G11  C02Y 7345   1.807   7.586  12.788
   118G11  H008 7346   1.720   7.524  12.803
   118G11  C02Z 7347   1.865   7.613  12.652
   118G11  O004 7348   1.820   7.577  12.540
   118G11  O003 7349   1.979   7.676  12.670
   118G11  C02J 7350   1.994   7.661  13.088
   118G11  C01Z 7351   1.916   7.547  13.441
   118G11  C020 7352   1.804   7.507  13.508
   118G11  C01I 7353   1.683   7.504  13.447
   118G11  C01H 7354   1.572   7.445  13.501
   118G11  C00K 7355   1.452   7.435  13.426
   118G11  C01S 7356   1.446   7.477  13.294
   118G11  C014 7357   1.342   7.462  13.213
   118G11  C00J 7358   1.346   7.366  13.481
   118G11  C00I 7359   1.357   7.311  13.603
   118G11  C00H 7360   1.473   7.321  13.675
   118G11  C00G 7361   1.488   7.251  13.797
   118G11  C00S 7362   1.243   7.245  13.652
   118G11  C00T 7363   1.259   7.191  13.775
   118G11  C00U 7364   1.158   7.113  13.826
   118G11  C00R 7365   1.129   7.221  13.580
   118G11  C00L 7366   1.238   7.347  13.401
   118G11  C028 7367   1.581   7.392  13.625
   118G11  C023 7368   1.698   7.395  13.695
   118G11  C024 7369   1.715   7.322  13.811
   118G11  C021 7370   1.810   7.455  13.637
   118G11  C022 7371   1.935   7.441  13.698
   118G11  C02H 7372   1.950   7.371  13.815
   118G11  C030 7373   2.078   7.344  13.868
   118G11  C034 7374   2.186   7.411  13.815
   118G11  C02P 7375   2.045   7.494  13.630
   118G11  C02B 7376   2.039   7.546  13.502
   118G11  C01J 7377   1.676   7.543  13.317
   118G11  C01X 7378   1.867   7.637  13.025
   118G11  C01T 7379   1.568   7.521  13.238
   118G11  H009 7380   1.448   7.759  12.533
   118G11  C01P 7381   1.354   7.576  12.812
   118G11  C01R 7382   1.348   7.496  13.079
   118G11  C00Z 7383   1.015   7.380  12.974
   118G11  O000 7384   0.899   7.327  13.032
   118G11  C00M 7385   1.232   7.398  13.268
   118G11  C00Y 7386   0.899   7.284  13.163
   118G11  C013 7387   0.788   7.220  13.213
   118G11  H001 7388   0.702   7.198  13.151
   118G11  C00Q 7389   1.128   7.274  13.449
   118G11  C001 7390   0.783   7.177  13.344
   118G11  C000 7391   0.675   7.122  13.403
   118G11  H006 7392   0.582   7.118  13.349
   118G11  C00W 7393   1.019   7.150  13.630
   118G11  C01G 7394   0.668   7.057  13.527
   118G11  H005 7395   0.573   7.008  13.543
   118G11  C01C 7396   0.637   6.914  13.771
   118G11  H002 7397   0.542   6.935  13.723
   118G11  C01B 7398   0.660   6.845  13.896
   118G11  C01D 7399   0.562   6.780  13.973
   118G11  H003 7400   0.458   6.785  13.944
   118G11  C01E 7401   0.614   6.716  14.077
   118G11  H004 7402   0.549   6.659  14.142
   118G11  O002 7403   0.739   6.710  14.110
   118G11  C01A 7404   0.789   6.852  13.927
   118G11  C00V 7405   1.035   7.087  13.759
   118G11  C019 7406   0.829   6.789  14.044
   118G11  C02E 7407   1.248   6.573  14.424
   118G11  C0FX 7408   1.269   6.463  14.511
   118G11  C0FW 7409   1.397   6.426  14.550
   118G11  C0GB 7410   1.159   6.393  14.563
   118G11  C0G3 7411   1.353   6.646  14.383
   118G11  C07H 7412   1.478   6.613  14.424
   118G11  C0GC 7413   1.031   6.429  14.528
   118G11  C0G2 7414   1.181   6.280  14.644
   118G11  C0G1 7415   1.310   6.244  14.677
   118G11  C0FB 7416   1.484   5.952  14.813
   118G11  C0F2 7417   1.701   6.131  14.772
   118G11  C0FY 7418   1.419   6.319  14.626
   118G11  C0F5 7419   1.785   6.335  14.678
   118G11  C0FV 7420   1.501   6.506  14.512
   118G11  C079 7421   1.863   6.527  14.555
   118G11  C07A 7422   1.952   6.716  14.427
   118G11  C06Y 7423   1.915   6.933  14.263
   118G11  C07D 7424   1.589   6.694  14.391
   118G11  C01F 7425   1.331   6.750  14.291
   118G11  C00A 7426   1.184   6.871  14.136
   118G11  C00X 7427   1.173   7.038  13.938
   118G11  C00F 7428   1.375   7.191  13.849
   118G11  C029 7429   1.529   7.005  14.119
   118G11  C025 7430   1.609   7.251  13.864
   118G11  C06U 7431   1.762   7.060  14.132
   118G11  C02A 7432   1.838   7.306  13.869
   118G11  C05Y 7433   2.100   7.267  13.980
   118G11  C05Z 7434   2.228   7.241  14.028
   118G11  C060 7435   2.338   7.306  13.970
   118G11  C062 7436   2.468   7.274  14.011
   118G11  C06T 7437   1.893   7.032  14.176
   118G11  C06A 7438   2.248   7.140  14.126
   118G11  C06Z 7439   2.044   6.897  14.302
   118G11  C06Q 7440   2.301   6.828  14.388
   118G11  C068 7441   2.376   7.115  14.169
   118G11  C067 7442   2.492   7.179  14.117
   118G11  C063 7443   2.876   7.060  14.248
   118G11  C06C 7444   3.002   7.001  14.281
   118G11  C06D 7445   3.114   7.044  14.224
   118G11  C06E 7446   3.242   6.981  14.233
   118G11  C07Q 7447   3.255   6.878  14.323
   118G11  C07P 7448   3.145   6.837  14.393
   118G11  C07T 7449   3.161   6.740  14.492
   118G11  C07U 7450   3.050   6.689  14.555
   118G11  C07V 7451   3.062   6.579  14.642
   118G11  C084 7452   3.187   6.515  14.659
   118G11  C08C 7453   3.295   6.565  14.591
   118G11  C08B 7454   3.408   6.490  14.580
   118G11  C08A 7455   3.518   6.536  14.510
   118G11  C089 7456   3.516   6.651  14.436
   118G11  C088 7457   3.631   6.686  14.359
   118G11  C087 7458   3.620   6.793  14.265
   118G11  C086 7459   3.491   6.854  14.256
   118G11  C08X 7460   3.746   6.610  14.358
   118G11  C08T 7461   3.742   6.480  14.425
   118G11  C08D 7462   3.396   6.724  14.437
   118G11  C08U 7463   3.626   6.450  14.492
   118G11  C08V 7464   3.630   6.330  14.560
   118G11  C0CY 7465   3.534   6.283  14.642
   118G11  C0CX 7466   3.547   6.157  14.697
   118G11  C0CW 7467   3.435   6.107  14.769
   118G11  C0CV 7468   3.317   6.187  14.770
   118G11  C0D4 7469   3.313   6.315  14.716
   118G11  C0CU 7470   3.210   6.136  14.843
   118G11  C0CT 7471   3.212   6.010  14.904
   118G11  C0CS 7472   3.333   5.937  14.903
   118G11  C0D6 7473   3.096   6.214  14.839
   118G11  C0EC 7474   3.084   6.340  14.776
   118G11  C07X 7475   2.959   6.404  14.768
   118G11  C0DL 7476   2.988   6.166  14.901
   118G11  C0DK 7477   2.869   6.232  14.898
   118G11  C0DN 7478   2.784   6.170  14.973
   118G11  C0D8 7479   2.982   6.042  14.966
   118G11  C08W 7480   3.753   6.266  14.539
   118G11  C0CQ 7481   3.766   6.132  14.591
   118G11  C093 7482   3.421   6.365  14.648
   118G11  C092 7483   3.200   6.392  14.722
   118G11  C085 7484   3.287   6.679  14.515
   118G11  C07S 7485   3.388   6.826  14.341
   118G11  C06F 7486   3.349   7.023  14.162
   118G11  C07O 7487   3.018   6.895  14.373
   118G11  C07N 7488   2.905   6.846  14.435
   118G11  C05D 7489   3.101   7.155  14.142
   118G11  C05C 7490   3.211   7.198  14.077
   118G11  C05N 7491   3.168   7.289  13.986
   118G11  C05M 7492   2.804   7.359  13.892
   118G11  C05I 7493   2.573   7.334  13.940
   118G11  C061 7494   2.314   7.390  13.865
   118G11  C02Q 7495   2.159   7.483  13.700
   118G11  C02O 7496   2.148   7.599  13.432
   118G11  C03Q 7497   2.469   7.548  13.590
   118G11  C03O 7498   2.682   7.564  13.487
   118G11  C03L 7499   2.765   7.640  13.150
   118G11  C02S 7500   2.398   7.641  13.250
   118G11  C02T 7501   2.359   7.708  12.989
   118G11  C03K 7502   2.741   7.670  13.004
   118G11  C03I 7503   2.341   7.740  12.860
   118G11  C03G 7504   2.314   7.839  12.593
   118G11  H00D 7505   2.303   7.882  12.495
   118G11  C03J 7506   2.687   7.721  12.728
   118G11  C03W 7507   2.879   7.678  12.526
   118G11  C04I 7508   3.045   7.640  12.686
   118G11  C04K 7509   3.285   7.537  12.778
   118G11  C04N 7510   3.397   7.483  12.840
   118G11  C04X 7511   3.525   7.402  13.033
   118G11  C050 7512   3.649   7.312  13.230
   118G11  C05W 7513   3.459   7.434  13.393
   118G11  C05S 7514   3.747   7.186  13.670
   118G11  C05R 7515   3.466   7.397  13.697
   118G11  C05O 7516   3.263   7.338  13.896
   118G11  C05B 7517   3.334   7.134  14.082
   118G11  C05A 7518   3.624   7.147  13.871
   118G11  C07R 7519   3.470   6.953  14.156
   118G11  C08N 7520   3.725   6.823  14.181
   118G11  C08M 7521   3.847   6.754  14.199
   118G11  C08L 7522   3.961   6.794  14.115
   118G11  C091 7523   3.727   7.095  13.788
   118G11  C09K 7524   4.003   6.892  13.682
   118G11  H00M 7525   3.954   6.883  13.586
   118G11  C08K 7526   3.935   6.884  14.011
   118G11  C09J 7527   4.133   6.841  13.714
   118G11  C09I 7528   4.230   6.737  13.681
   118G11  C09L 7529   4.290   6.697  13.555
   118G11  H00N 7530   4.262   6.740  13.460
   118G11  C09Q 7531   4.387   6.605  13.567
   118G11  H00O 7532   4.445   6.580  13.479
   118G11  O00B 7533   4.421   6.536  13.680
   118G11  C09G 7534   4.372   6.576  13.801
   118G11  C09F 7535   4.413   6.487  13.909
   118G11  O00A 7536   4.504   6.393  13.865
   118G11  C09P 7537   4.537   6.297  13.955
   118G11  H00P 7538   4.633   6.252  13.935
   118G11  C09O 7539   4.426   6.251  14.038
   118G11  C09D 7540   4.357   6.359  14.104
   118G11  C09C 7541   4.284   6.346  14.229
   118G11  C09N 7542   4.238   6.230  14.306
   118G11  C09T 7543   4.227   6.101  14.249
   118G11  C09S 7544   4.300   6.058  14.134
   118G11  C0CP 7545   4.261   5.925  14.115
   118G11  C0CN 7546   4.161   5.886  14.207
   118G11  C0CO 7547   4.112   5.756  14.188
   118G11  H014 7548   4.024   5.725  14.242
   118G11  C0CZ 7549   4.177   5.670  14.100
   118G11  H015 7550   4.145   5.569  14.083
   118G11  C0D0 7551   4.295   5.702  14.027
   118G11  C0G5 7552   4.375   5.616  13.941
   118G11  H01F 7553   4.340   5.515  13.927
   118G11  C0G4 7554   4.479   5.666  13.871
   118G11  H01G 7555   4.534   5.590  13.818
   118G11  O00H 7556   4.517   5.800  13.871
   118G11  C0D2 7557   4.452   5.886  13.958
   118G11  C09V 7558   4.468   6.026  13.960
   118G11  H00Q 7559   4.535   6.060  13.882
   118G11  C0D1 7560   4.339   5.837  14.030
   118G11  C09R 7561   4.403   6.116  14.050
   118G11  C09H 7562   4.279   6.682  13.806
   118G11  C09E 7563   4.350   6.487  14.035
   118G11  C09B 7564   4.231   6.454  14.297
   118G11  C08Z 7565   4.083   6.728  14.137
   118G11  C08O 7566   3.862   6.659  14.298
   118G11  C09A 7567   4.156   6.420  14.409
   118G11  C08S 7568   3.818   6.360  14.455
   118G11  C099 7569   4.156   6.280  14.410
   118G11  C09U 7570   4.140   5.994  14.296
   118G11  C0BO 7571   3.978   5.697  14.625
   118G11  C0CL 7572   3.879   6.052  14.564
   118G11  C0D3 7573   3.666   6.088  14.678
   118G11  C0D5 7574   3.444   5.987  14.831
   118G11  C0BR 7575   3.772   5.744  14.744
   118G11  C0BQ 7576   3.875   5.654  14.709
   118G11  C0BL 7577   4.063   5.469  14.613
   118G11  C0AF 7578   4.067   5.210  14.700
   118G11  C0BH 7579   3.766   5.345  14.869
   118G11  C0BG 7580   3.660   5.298  14.943
   118G11  C0BD 7581   3.756   5.074  14.946
   118G11  C0AG 7582   4.053   5.079  14.742
   118G11  C0AI 7583   4.116   4.854  14.691
   118G11  C0AV 7584   4.064   4.598  14.681
   118G11  C0BB 7585   3.847   4.713  14.966
   118G11  O00C 7586   3.872   4.441  14.746
   118G11  C0BC 7587   3.735   4.648  15.006
   118G11  C0B9 7588   3.747   4.936  14.974
   118G11  O00E 7589   3.413   4.919  15.116
   118G11  C0CA 7590   3.328   5.004  15.175
   118G11  O00F 7591   3.237   4.950  15.233
   118G11  C0BF 7592   3.650   5.165  14.975
   118G11  C0C5 7593   3.336   5.145  15.143
   118G11  C0C4 7594   3.228   5.222  15.197
   118G11  H011 7595   3.153   5.181  15.262
   118G11  C0C8 7596   3.564   5.383  14.991
   118G11  C0C2 7597   3.241   5.362  15.167
   118G11  C0C3 7598   3.143   5.457  15.196
   118G11  C0DY 7599   3.038   5.437  15.284
   118G11  H016 7600   3.021   5.351  15.346
   118G11  C0DX 7601   2.950   5.553  15.268
   118G11  C0DW 7602   2.842   5.573  15.358
   118G11  C0BY 7603   3.460   5.604  14.989
   118G11  C0DB 7604   3.131   5.586  15.151
   118G11  C0CC 7605   3.341   5.812  14.965
   118G11  C0D7 7606   3.095   5.958  14.964
   118G11  C0DZ 7607   3.014   5.655  15.185
   118G11  C0DM 7608   2.851   6.044  15.023
   118G11  C0DQ 7609   2.745   5.773  15.234
   118G11  C0DV 7610   2.755   5.674  15.335
   118G11  C0E0 7611   2.802   5.511  15.481
   118G11  C0FO 7612   2.466   5.461  15.580
   118G11  C0E3 7613   2.801   5.370  15.532
   118G11  H017 7614   2.860   5.291  15.490
   118G11  C0GV 7615   2.453   5.322  15.574
   118G11  C0ES 7616   2.375   5.528  15.488
   118G11  C0GQ 7617   2.108   5.273  15.495
   118G11  C0FJ 7618   1.905   5.550  15.356
   118G11  C0ED 7619   2.166   5.662  15.339
   118G11  C0ER 7620   1.998   5.715  15.035
   118G11  C0EP 7621   2.090   5.911  14.980
   118G11  C0E6 7622   2.365   5.809  15.247
   118G11  C0DE 7623   2.525   6.029  15.083
   118G11  C0EA 7624   2.196   6.138  14.907
   118G11  C0DF 7625   2.546   6.167  15.051
   118G11  C080 7626   2.408   6.381  14.794
   118G11  C0DO 7627   2.654   6.220  14.980
   118G11  C0DJ 7628   2.848   6.358  14.833
   118G11  C07K 7629   2.577   6.555  14.676
   118G11  C07W 7630   2.947   6.519  14.692
   118G11  C083 7631   2.921   6.740  14.527
   118G11  C07J 7632   2.567   6.657  14.584
   118G11  C06O 7633   2.537   6.879  14.401
   118G11  C06M 7634   2.776   6.902  14.399
   128G11  C071 7635   3.109   5.183   8.148
   128G11  C07L 7636   3.080   5.302   8.217
   128G11  C07M 7637   2.978   5.313   8.310
   128G11  C07Y 7638   2.939   5.441   8.358
   128G11  C081 7639   3.019   5.558   8.338
   128G11  C082 7640   2.990   5.675   8.411
   128G11  C0DI 7641   3.057   5.809   8.407
   128G11  C0DH 7642   3.162   5.861   8.326
   128G11  C0DG 7643   3.183   6.004   8.359
   128G11  C0E9 7644   3.201   6.123   8.275
   128G11  C0E8 7645   3.151   6.235   8.366
   128G11  C0E7 7646   3.185   6.378   8.367
   128G11  C0EB 7647   3.284   6.435   8.274
   128G11  C0EF 7648   3.348   6.562   8.278
   128G11  C0EE 7649   3.386   6.645   8.388
   128G11  C0FD 7650   3.518   6.701   8.380
   128G11  C0FE 7651   3.623   6.679   8.286
   128G11  H01B 7652   3.607   6.601   8.213
   128G11  C0FF 7653   3.741   6.747   8.282
   128G11  H01A 7654   3.811   6.743   8.199
   128G11  C0FG 7655   3.767   6.834   8.385
   128G11  H018 7656   3.865   6.878   8.394
   128G11  C0FH 7657   3.678   6.855   8.495
   128G11  C0FI 7658   3.705   6.946   8.600
   128G11  H019 7659   3.794   7.007   8.593
   128G11  O00K 7660   3.621   6.960   8.707
   128G11  C0FL 7661   3.496   6.911   8.689
   128G11  C0FK 7662   3.453   6.829   8.575
   128G11  C0FM 7663   3.324   6.779   8.570
   128G11  C0FN 7664   3.222   6.837   8.650
   128G11  C0FP 7665   3.260   6.924   8.754
   128G11  C0GO 7666   3.179   6.959   8.853
   128G11  C0GN 7667   3.213   7.013   8.975
   128G11  C0GR 7668   3.349   7.040   8.993
   128G11  C0GS 7669   3.397   7.092   9.117
   128G11  H01Q 7670   3.502   7.111   9.134
   128G11  C0GT 7671   3.303   7.104   9.220
   128G11  H01O 7672   3.335   7.144   9.316
   128G11  C0GU 7673   3.170   7.071   9.196
   128G11  H01P 7674   3.093   7.089   9.270
   128G11  O00L 7675   3.433   7.025   8.886
   128G11  C0GM 7676   3.119   7.022   9.076
   128G11  C0GL 7677   2.981   6.976   9.048
   128G11  H01R 7678   2.911   6.973   9.130
   128G11  C0GK 7679   2.936   6.935   8.916
   128G11  C0GP 7680   2.819   6.883   8.853
   128G11  C0E2 7681   2.857   6.855   8.720
   128G11  C0E1 7682   2.778   6.740   8.682
   128G11  C0DU 7683   2.831   6.620   8.619
   128G11  C0DT 7684   2.954   6.596   8.559
   128G11  C0E4 7685   3.063   6.678   8.561
   128G11  C0E5 7686   3.169   6.606   8.509
   128G11  C0DS 7687   2.988   6.467   8.519
   128G11  C0DR 7688   2.909   6.356   8.553
   128G11  C0DD 7689   2.939   6.219   8.533
   128G11  C0DC 7690   2.824   6.149   8.604
   128G11  C0DP 7691   2.736   6.245   8.667
   128G11  C0DA 7692   2.611   6.221   8.745
   128G11  C0D9 7693   2.526   6.096   8.757
   128G11  C0CR 7694   2.408   6.092   8.835
   128G11  C0C0 7695   2.358   6.203   8.893
   128G11  C0BZ 7696   2.237   6.221   8.961
   128G11  C0C1 7697   2.203   6.343   9.021
   128G11  C0C7 7698   2.078   6.350   9.083
   128G11  C0C6 7699   2.033   6.469   9.141
   128G11  C0C9 7700   1.907   6.490   9.179
   128G11  C0B8 7701   1.870   6.618   9.232
   128G11  C0B7 7702   1.734   6.643   9.261
   128G11  C0B6 7703   1.680   6.754   9.342
   128G11  C0B5 7704   1.737   6.775   9.469
   128G11  H00Z 7705   1.832   6.736   9.503
   128G11  C0B4 7706   1.631   6.810   9.556
   128G11  H010 7707   1.630   6.820   9.663
   128G11  C0B3 7708   1.508   6.829   9.479
   128G11  C0AP 7709   1.380   6.776   9.512
   128G11  C0AQ 7710   1.358   6.681   9.409
   128G11  C0AR 7711   1.268   6.575   9.422
   128G11  C0AS 7712   1.300   6.472   9.336
   128G11  C0AT 7713   1.416   6.457   9.261
   128G11  C0BA 7714   1.506   6.563   9.255
   128G11  C0AU 7715   1.458   6.331   9.216
   128G11  C0BE 7716   1.591   6.314   9.177
   128G11  C0BI 7717   1.636   6.185   9.146
   128G11  C0BJ 7718   1.552   6.074   9.164
   128G11  C0BK 7719   1.600   5.951   9.134
   128G11  C0BW 7720   1.727   5.932   9.077
   128G11  C0BV 7721   1.814   6.038   9.068
   128G11  C0BU 7722   1.942   6.018   9.026
   128G11  C0BX 7723   2.031   6.125   9.025
   128G11  C0BT 7724   1.981   5.899   8.974
   128G11  C0CD 7725   2.108   5.884   8.919
   128G11  C0CB 7726   2.197   5.993   8.910
   128G11  C0CE 7727   2.142   5.763   8.866
   128G11  C0CK 7728   2.059   5.648   8.877
   128G11  C0BS 7729   1.929   5.668   8.918
   128G11  C0CJ 7730   1.841   5.561   8.927
   128G11  C0BP 7731   1.713   5.579   8.985
   128G11  C0CI 7732   1.622   5.474   8.996
   128G11  C0CH 7733   1.518   5.491   9.093
   128G11  H012 7734   1.469   5.398   9.118
   128G11  C0BN 7735   1.480   5.610   9.146
   128G11  C0CG 7736   1.360   5.622   9.213
   128G11  C0CF 7737   1.280   5.509   9.248
   128G11  H013 7738   1.319   5.411   9.229
   128G11  O00G 7739   1.158   5.521   9.312
   128G11  C0AA 7740   1.124   5.649   9.348
   128G11  C0A9 7741   1.000   5.655   9.416
   128G11  H00U 7742   0.925   5.578   9.420
   128G11  C0A8 7743   0.958   5.777   9.461
   128G11  H00V 7744   0.862   5.760   9.508
   128G11  C0A7 7745   1.037   5.898   9.457
   128G11  C0A6 7746   1.163   5.889   9.382
   128G11  C0A5 7747   1.238   5.998   9.335
   128G11  C0A4 7748   1.199   6.131   9.372
   128G11  C0A3 7749   1.114   6.201   9.463
   128G11  C0A2 7750   1.041   6.131   9.557
   128G11  C0A1 7751   0.953   6.192   9.658
   128G11  C0A0 7752   0.952   6.326   9.724
   128G11  C09Z 7753   0.867   6.346   9.836
   128G11  C09Y 7754   0.868   6.466   9.908
   128G11  H00Y 7755   0.805   6.473   9.996
   128G11  C09X 7756   0.953   6.567   9.879
   128G11  C09W 7757   0.961   6.675   9.975
   128G11  H00R 7758   0.914   6.670  10.072
   128G11  C0AX 7759   1.050   6.773   9.962
   128G11  H00S 7760   1.064   6.846  10.040
   128G11  C0AW 7761   1.128   6.775   9.845
   128G11  H00T 7762   1.200   6.855   9.838
   128G11  C0AN 7763   1.130   6.667   9.748
   128G11  C0AO 7764   1.206   6.664   9.628
   128G11  C0AM 7765   1.038   6.556   9.769
   128G11  C0B2 7766   0.775   6.248   9.883
   128G11  O00D 7767   0.703   6.261   9.982
   128G11  C0B1 7768   0.774   6.123   9.811
   128G11  H00W 7769   0.703   6.053   9.852
   128G11  C0AL 7770   1.035   6.436   9.680
   128G11  C0AK 7771   1.120   6.449   9.562
   128G11  C0B0 7772   0.859   6.100   9.700
   128G11  C0AZ 7773   0.881   5.979   9.627
   128G11  H00X 7774   0.822   5.890   9.645
   128G11  C0AJ 7775   1.143   6.339   9.467
   128G11  C0AH 7776   1.264   6.236   9.307
   128G11  C0AE 7777   1.356   5.982   9.257
   128G11  C0AD 7778   1.404   5.858   9.233
   128G11  C0AY 7779   0.993   5.999   9.543
   128G11  C0AB 7780   1.203   5.764   9.332
   128G11  C0AC 7781   1.323   5.749   9.262
   128G11  C0BM 7782   1.563   5.716   9.122
   128G11  C0CM 7783   1.647   5.353   8.926
   128G11  C09M 7784   1.783   5.315   8.900
   128G11  C098 7785   1.811   5.173   8.899
   128G11  C08R 7786   1.932   5.095   8.858
   128G11  C08Q 7787   1.924   4.952   8.868
   128G11  C08P 7788   1.980   4.837   8.809
   128G11  C08Y 7789   1.892   4.725   8.802
   128G11  C097 7790   1.752   4.742   8.819
   128G11  C096 7791   1.673   4.668   8.741
   128G11  C090 7792   1.761   4.570   8.687
   128G11  C095 7793   1.724   4.466   8.602
   128G11  C094 7794   1.816   4.378   8.544
   128G11  C08J 7795   1.954   4.381   8.536
   128G11  C08I 7796   1.994   4.313   8.414
   128G11  C08H 7797   2.132   4.356   8.385
   128G11  C08G 7798   2.154   4.469   8.478
   128G11  C08F 7799   2.267   4.557   8.510
   128G11  C08E 7800   2.397   4.539   8.460
   128G11  C059 7801   2.449   4.416   8.409
   128G11  C058 7802   2.584   4.400   8.363
   128G11  C057 7803   2.641   4.288   8.300
   128G11  C056 7804   2.552   4.176   8.295
   128G11  C055 7805   2.436   4.170   8.364
   128G11  C054 7806   2.358   4.066   8.306
   128G11  C053 7807   2.428   4.007   8.193
   128G11  C052 7808   2.379   3.918   8.091
   128G11  C051 7809   2.242   3.867   8.089
   128G11  C05U 7810   2.129   3.923   8.164
   128G11  C05T 7811   2.117   4.035   8.254
   128G11  C06K 7812   1.990   4.012   8.324
   128G11  H00J 7813   1.967   4.056   8.420
   128G11  C06L 7814   1.915   3.906   8.265
   128G11  H00I 7815   1.818   3.866   8.291
   128G11  C05V 7816   2.004   3.859   8.164
   128G11  C06J 7817   1.973   3.755   8.079
   128G11  H00K 7818   1.880   3.698   8.076
   128G11  C05X 7819   2.069   3.718   7.981
   128G11  C06I 7820   2.037   3.628   7.877
   128G11  H00L 7821   1.939   3.583   7.877
   128G11  C04Z 7822   2.125   3.593   7.771
   128G11  C06H 7823   2.087   3.505   7.663
   128G11  H00H 7824   1.992   3.454   7.659
   128G11  C04Y 7825   2.177   3.497   7.550
   128G11  C06G 7826   2.127   3.430   7.437
   128G11  O009 7827   2.012   3.387   7.436
   128G11  O008 7828   2.212   3.402   7.332
   128G11  C04P 7829   2.339   3.457   7.328
   128G11  C04J 7830   2.435   3.443   7.221
   128G11  C04Q 7831   2.429   3.355   7.108
   128G11  H00E 7832   2.350   3.281   7.104
   128G11  C04M 7833   2.534   3.342   7.016
   128G11  C04R 7834   2.535   3.262   6.903
   128G11  H00F 7835   2.463   3.182   6.891
   128G11  C04S 7836   2.634   3.260   6.816
   128G11  H00G 7837   2.637   3.203   6.725
   128G11  O007 7838   2.743   3.342   6.823
   128G11  C03V 7839   2.753   3.421   6.937
   128G11  C03U 7840   2.852   3.517   6.935
   128G11  O006 7841   2.925   3.529   6.821
   128G11  C03F 7842   3.026   3.614   6.829
   128G11  C03E 7843   3.054   3.696   6.937
   128G11  C03D 7844   2.977   3.693   7.048
   128G11  C03C 7845   3.004   3.770   7.157
   128G11  C03B 7846   3.113   3.858   7.142
   128G11  C03A 7847   3.135   3.945   7.252
   128G11  C039 7848   3.055   3.957   7.368
   128G11  C038 7849   3.121   4.060   7.443
   128G11  C037 7850   3.222   4.108   7.363
   128G11  C036 7851   3.310   4.201   7.402
   128G11  C02R 7852   3.402   4.269   7.329
   128G11  C035 7853   3.442   4.370   7.418
   128G11  C03R 7854   3.376   4.365   7.538
   128G11  C03S 7855   3.349   4.476   7.618
   128G11  C049 7856   3.246   4.460   7.711
   128G11  C048 7857   3.168   4.345   7.706
   128G11  C03P 7858   3.177   4.240   7.603
   128G11  C047 7859   3.076   4.344   7.812
   128G11  C046 7860   2.997   4.239   7.837
   128G11  C045 7861   2.955   4.131   7.770
   128G11  C03T 7862   2.996   4.079   7.647
   128G11  C044 7863   2.912   3.968   7.614
   128G11  C043 7864   2.854   3.928   7.734
   128G11  C042 7865   2.747   3.837   7.722
   128G11  C041 7866   2.766   3.796   7.578
   128G11  C040 7867   2.681   3.714   7.502
   128G11  C03Z 7868   2.710   3.661   7.368
   128G11  C04H 7869   2.595   3.592   7.347
   128G11  C04G 7870   2.501   3.596   7.450
   128G11  C03N 7871   2.810   3.676   7.265
   128G11  C03Y 7872   2.784   3.587   7.157
   128G11  C03X 7873   2.667   3.504   7.145
   128G11  C04F 7874   2.551   3.673   7.550
   128G11  C04E 7875   2.475   3.692   7.665
   128G11  C04O 7876   2.342   3.632   7.662
   128G11  C04D 7877   2.508   3.762   7.782
   128G11  C04V 7878   2.413   3.784   7.886
   128G11  C04W 7879   2.283   3.734   7.883
   128G11  C04C 7880   2.624   3.835   7.812
   128G11  C04L 7881   2.601   3.906   7.935
   128G11  C04U 7882   2.688   3.994   8.005
   128G11  C05Q 7883   2.660   4.073   8.117
   128G11  C05P 7884   2.752   4.179   8.123
   128G11  C04T 7885   2.831   4.179   8.008
   128G11  C04B 7886   2.797   4.062   7.943
   128G11  C03M 7887   2.880   3.872   7.511
   128G11  C04A 7888   2.866   4.035   7.827
   128G11  C05H 7889   2.931   4.266   7.957
   128G11  C05G 7890   2.980   4.392   8.009
   128G11  C05F 7891   2.937   4.455   8.130
   128G11  C05E 7892   2.945   4.595   8.157
   128G11  C05L 7893   3.014   4.706   8.098
   128G11  C05K 7894   3.105   4.696   7.986
   128G11  C05J 7895   3.132   4.578   7.905
   128G11  C066 7896   3.168   4.813   7.944
   128G11  C065 7897   3.149   4.938   8.011
   128G11  C064 7898   3.055   4.945   8.117
   128G11  C06N 7899   3.216   5.056   7.973
   128G11  C069 7900   3.297   5.053   7.862
   128G11  C06P 7901   3.349   5.173   7.813
   128G11  C06R 7902   3.424   5.182   7.694
   128G11  C06B 7903   3.450   5.064   7.628
   128G11  C06S 7904   3.527   5.070   7.509
   128G11  C02G 7905   3.544   4.960   7.436
   128G11  C02F 7906   3.605   4.963   7.315
   128G11  C027 7907   3.648   5.084   7.261
   128G11  C026 7908   3.706   5.089   7.134
   128G11  C00E 7909   3.739   5.213   7.081
   128G11  C00D 7910   3.785   5.214   6.950
   128G11  C00C 7911   3.823   5.334   6.894
   128G11  C00B 7912   3.794   5.457   6.955
   128G11  C015 7913   3.747   5.454   7.086
   128G11  C07F 7914   3.713   5.571   7.153
   128G11  C07E 7915   3.658   5.566   7.281
   128G11  C06W 7916   3.636   5.441   7.339
   128G11  C06V 7917   3.662   5.321   7.271
   128G11  C06X 7918   3.576   5.434   7.463
   128G11  C07B 7919   3.533   5.552   7.528
   128G11  C07C 7920   3.570   5.675   7.470
   128G11  C0FU 7921   3.541   5.796   7.540
   128G11  C0F7 7922   3.565   5.916   7.482
   128G11  C0F6 7923   3.525   6.030   7.545
   128G11  C0F8 7924   3.539   6.154   7.484
   128G11  C0F9 7925   3.508   6.271   7.550
   128G11  C0FA 7926   3.522   6.398   7.486
   128G11  C0FZ 7927   3.581   6.400   7.360
   128G11  C0G0 7928   3.593   6.522   7.292
   128G11  C0GD 7929   3.533   6.640   7.339
   128G11  C0FC 7930   3.480   6.637   7.467
   128G11  C0GH 7931   3.430   6.754   7.532
   128G11  C0EY 7932   3.396   6.747   7.668
   128G11  C0EX 7933   3.357   6.865   7.737
   128G11  C0EW 7934   3.334   6.860   7.874
   128G11  C0FR 7935   3.280   6.970   7.945
   128G11  H01D 7936   3.254   6.966   8.050
   128G11  C0FS 7937   3.252   7.091   7.871
   128G11  H01C 7938   3.221   7.185   7.914
   128G11  C0GJ 7939   3.291   7.097   7.735
   128G11  H01N 7940   3.274   7.183   7.673
   128G11  C0EV 7941   3.361   6.737   7.942
   128G11  C0FT 7942   3.369   6.729   8.081
   128G11  H01E 7943   3.390   6.819   8.138
   128G11  C0EU 7944   3.365   6.617   7.873
   128G11  C0ET 7945   3.358   6.493   7.934
   128G11  C0EI 7946   3.384   6.374   7.878
   128G11  C0F1 7947   3.423   6.381   7.743
   128G11  C0F0 7948   3.429   6.505   7.674
   128G11  C0EH 7949   3.354   6.254   7.946
   128G11  C0EG 7950   3.305   6.250   8.087
   128G11  C0EJ 7951   3.384   6.137   7.879
   128G11  C0F3 7952   3.433   6.141   7.745
   128G11  C0EK 7953   3.356   6.015   7.936
   128G11  C0EL 7954   3.296   6.007   8.069
   128G11  C0EM 7955   3.261   5.868   8.099
   128G11  C0EN 7956   3.297   5.768   8.019
   128G11  C07I 7957   3.250   5.645   8.063
   128G11  C074 7958   3.278   5.525   8.002
   128G11  C073 7959   3.223   5.414   8.058
   128G11  C072 7960   3.249   5.293   7.994
   128G11  C075 7961   3.348   5.535   7.886
   128G11  C076 7962   3.389   5.662   7.834
   128G11  C078 7963   3.457   5.661   7.715
   128G11  C07G 7964   3.377   5.409   7.825
   128G11  C070 7965   3.444   5.412   7.705
   128G11  C07Z 7966   3.179   5.659   8.181
   128G11  C077 7967   3.368   5.778   7.900
   128G11  C0EO 7968   3.400   5.901   7.860
   128G11  C0F4 7969   3.463   5.905   7.732
   128G11  C0EQ 7970   3.349   6.497   8.071
   128G11  C0FQ 7971   3.343   6.985   7.667
   128G11  C0GI 7972   3.381   6.985   7.531
   128G11  H01L 7973   3.365   7.080   7.482
   128G11  C0EZ 7974   3.398   6.625   7.738
   128G11  C0GG 7975   3.424   6.872   7.461
   128G11  C0GF 7976   3.468   6.872   7.319
   128G11  H01M 7977   3.459   6.964   7.263
   128G11  C0GE 7978   3.516   6.759   7.266
   128G11  H01K 7979   3.553   6.772   7.166
   128G11  O00J 7980   3.651   6.532   7.169
   128G11  C0GA 7981   3.681   6.414   7.101
   128G11  C0G9 7982   3.734   6.423   6.974
   128G11  H01H 7983   3.732   6.523   6.932
   128G11  C0G8 7984   3.775   6.312   6.902
   128G11  C0G7 7985   3.841   6.319   6.771
   128G11  H01I 7986   3.870   6.418   6.741
   128G11  O00I 7987   3.881   6.204   6.702
   128G11  C0G6 7988   3.857   6.084   6.774
   128G11  H01J 7989   3.901   6.001   6.722
   128G11  C02D 7990   3.787   6.070   6.899
   128G11  C02C 7991   3.769   5.941   6.959
   128G11  C017 7992   3.793   5.818   6.889
   128G11  C016 7993   3.780   5.697   6.952
   128G11  O001 7994   3.819   5.820   6.754
   128G11  C018 7995   3.841   5.702   6.683
   128G11  C009 7996   3.837   5.574   6.745
   128G11  C008 7997   3.857   5.444   6.687
   128G11  C007 7998   3.874   5.395   6.550
   128G11  C006 7999   3.895   5.476   6.441
   128G11  C005 8000   3.916   5.423   6.308
   128G11  C004 8001   3.928   5.287   6.255
   128G11  C003 8002   3.891   5.159   6.317
   128G11  C002 8003   3.887   5.040   6.239
   128G11  C00P 8004   3.850   4.917   6.300
   128G11  C00O 8005   3.839   4.802   6.223
   128G11  C00N 8006   3.789   4.682   6.279
   128G11  C010 8007   3.761   4.574   6.200
   128G11  C011 8008   3.697   4.456   6.247
   128G11  C01Q 8009   3.657   4.356   6.158
   128G11  C01U 8010   3.681   4.359   6.022
   128G11  C012 8011   3.741   4.480   5.977
   128G11  H000 8012   3.760   4.484   5.871
   128G11  C01V 8013   3.634   4.256   5.946
   128G11  H007 8014   3.656   4.259   5.840
   128G11  O005 8015   3.545   4.160   5.993
   128G11  C01W 8016   3.526   4.152   6.126
   128G11  C031 8017   3.454   4.040   6.177
   128G11  C032 8018   3.433   4.034   6.316
   128G11  H00A 8019   3.384   3.950   6.362
   128G11  C033 8020   3.479   4.139   6.401
   128G11  H00B 8021   3.449   4.128   6.504
   128G11  C01O 8022   3.558   4.241   6.356
   128G11  C01N 8023   3.616   4.333   6.441
   128G11  C01M 8024   3.621   4.311   6.588
   128G11  C01L 8025   3.574   4.224   6.705
   128G11  C01K 8026   3.600   4.304   6.818
   128G11  C01Y 8027   3.560   4.280   6.953
   128G11  C02I 8028   3.471   4.175   6.970
   128G11  C02N 8029   3.409   4.163   7.098
   128G11  C02M 8030   3.317   4.060   7.117
   128G11  C02L 8031   3.292   3.968   7.017
   128G11  C02K 8032   3.370   3.973   6.901
   128G11  C02U 8033   3.352   3.871   6.809
   128G11  C02V 8034   3.245   3.785   6.819
   128G11  C03H 8035   3.210   3.701   6.704
   128G11  H00C 8036   3.263   3.702   6.610
   128G11  C02W 8037   3.448   3.856   6.710
   128G11  C02X 8038   3.519   3.974   6.674
   128G11  C02Y 8039   3.609   3.929   6.577
   128G11  H008 8040   3.686   3.984   6.525
   128G11  C02Z 8041   3.583   3.785   6.545
   128G11  O004 8042   3.633   3.706   6.467
   128G11  O003 8043   3.484   3.750   6.629
   128G11  C02J 8044   3.455   4.079   6.872
   128G11  C01Z 8045   3.577   4.386   7.041
   128G11  C020 8046   3.642   4.507   7.000
   128G11  C01I 8047   3.698   4.522   6.877
   128G11  C01H 8048   3.731   4.642   6.822
   128G11  C00K 8049   3.755   4.650   6.687
   128G11  C01S 8050   3.725   4.543   6.600
   128G11  C014 8051   3.729   4.549   6.463
   128G11  C00J 8052   3.786   4.773   6.628
   128G11  C00I 8053   3.801   4.881   6.711
   128G11  C00H 8054   3.767   4.876   6.850
   128G11  C00G 8055   3.760   4.984   6.930
   128G11  C00S 8056   3.824   5.005   6.654
   128G11  C00T 8057   3.830   5.109   6.742
   128G11  C00U 8058   3.868   5.228   6.688
   128G11  C00R 8059   3.838   5.021   6.514
   128G11  C00L 8060   3.793   4.786   6.495
   128G11  C028 8061   3.730   4.757   6.902
   128G11  C023 8062   3.691   4.740   7.032
   128G11  C024 8063   3.687   4.851   7.113
   128G11  C021 8064   3.649   4.618   7.085
   128G11  C022 8065   3.599   4.612   7.214
   128G11  C02H 8066   3.593   4.726   7.295
   128G11  C030 8067   3.522   4.721   7.415
   128G11  C034 8068   3.478   4.601   7.459
   128G11  C02P 8069   3.537   4.496   7.249
   128G11  C02B 8070   3.523   4.383   7.164
   128G11  C01J 8071   3.670   4.412   6.792
   128G11  C01X 8072   3.521   4.093   6.738
   128G11  C01T 8073   3.675   4.423   6.653
   128G11  H009 8074   3.425   3.957   6.114
   128G11  C01P 8075   3.587   4.247   6.216
   128G11  C01R 8076   3.679   4.444   6.386
   128G11  C00Z 8077   3.776   4.588   6.061
   128G11  O000 8078   3.836   4.700   6.008
   128G11  C00M 8079   3.770   4.671   6.414
   128G11  C00Y 8080   3.868   4.800   6.086
   128G11  C013 8081   3.907   4.917   6.030
   128G11  H001 8082   3.931   4.917   5.925
   128G11  C00Q 8083   3.829   4.907   6.437
   128G11  C001 8084   3.918   5.038   6.104
   128G11  C000 8085   3.947   5.163   6.041
   128G11  H006 8086   3.970   5.167   5.936
   128G11  C00W 8087   3.863   5.145   6.455
   128G11  C01G 8088   3.964   5.280   6.116
   128G11  H005 8089   3.999   5.372   6.071
   128G11  C01C 8090   3.933   5.536   6.225
   128G11  H002 8091   3.939   5.553   6.119
   128G11  C01B 8092   3.927   5.648   6.311
   128G11  C01D 8093   3.947   5.785   6.273
   128G11  H003 8094   3.988   5.819   6.179
   128G11  C01E 8095   3.939   5.870   6.375
   128G11  H004 8096   3.976   5.971   6.363
   128G11  O002 8097   3.894   5.851   6.504
   128G11  C01A 8098   3.895   5.619   6.445
   128G11  C00V 8099   3.869   5.256   6.549
   128G11  C019 8100   3.875   5.719   6.543
   128G11  C02E 8101   3.719   5.934   7.089
   128G11  C0FX 8102   3.686   6.050   7.157
   128G11  C0FW 8103   3.641   6.043   7.289
   128G11  C0GB 8104   3.703   6.177   7.092
   128G11  C0G3 8105   3.694   5.807   7.152
   128G11  C07H 8106   3.645   5.804   7.284
   128G11  C0GC 8107   3.757   6.188   6.965
   128G11  C0G2 8108   3.661   6.289   7.162
   128G11  C0G1 8109   3.619   6.282   7.294
   128G11  C0FB 8110   3.475   6.516   7.543
   128G11  C0F2 8111   3.451   6.264   7.676
   128G11  C0FY 8112   3.602   6.159   7.356
   128G11  C0F5 8113   3.477   6.027   7.677
   128G11  C0FV 8114   3.618   5.920   7.350
   128G11  C079 8115   3.489   5.785   7.665
   128G11  C07A 8116   3.477   5.540   7.651
   128G11  C06Y 8117   3.546   5.310   7.521
   128G11  C07D 8118   3.631   5.685   7.345
   128G11  C01F 8119   3.729   5.693   7.082
   128G11  C00A 8120   3.806   5.575   6.884
   128G11  C00X 8121   3.877   5.339   6.768
   128G11  C00F 8122   3.797   5.102   6.874
   128G11  C029 8123   3.722   5.331   7.146
   128G11  C025 8124   3.723   4.976   7.062
   128G11  C06U 8125   3.631   5.203   7.327
   128G11  C02A 8126   3.630   4.845   7.243
   128G11  C05Y 8127   3.506   4.834   7.488
   128G11  C05Z 8128   3.431   4.826   7.608
   128G11  C060 8129   3.376   4.704   7.655
   128G11  C062 8130   3.292   4.698   7.770
   128G11  C06T 8131   3.568   5.193   7.453
   128G11  C06A 8132   3.405   4.943   7.678
   128G11  C06Z 8133   3.470   5.301   7.641
   128G11  C06Q 8134   3.326   5.291   7.878
   128G11  C068 8135   3.324   4.936   7.796
   128G11  C067 8136   3.261   4.817   7.836
   128G11  C063 8137   2.982   4.830   8.157
   128G11  C06C 8138   2.882   4.845   8.250
   128G11  C06D 8139   2.801   4.746   8.290
   128G11  C06E 8140   2.692   4.751   8.375
   128G11  C07Q 8141   2.656   4.876   8.415
   128G11  C07P 8142   2.740   4.986   8.377
   128G11  C07T 8143   2.699   5.107   8.435
   128G11  C07U 8144   2.787   5.218   8.412
   128G11  C07V 8145   2.744   5.338   8.459
   128G11  C084 8146   2.630   5.348   8.535
   128G11  C08C 8147   2.544   5.241   8.553
   128G11  C08B 8148   2.428   5.256   8.622
   128G11  C08A 8149   2.352   5.143   8.640
   128G11  C089 8150   2.381   5.018   8.598
   128G11  C088 8151   2.291   4.909   8.621
   128G11  C087 8152   2.328   4.785   8.565
   128G11  C086 8153   2.453   4.769   8.507
   128G11  C08X 8154   2.166   4.932   8.683
   128G11  C08T 8155   2.131   5.071   8.716
   128G11  C08D 8156   2.501   5.008   8.524
   128G11  C08U 8157   2.229   5.166   8.687
   128G11  C08V 8158   2.195   5.286   8.745
   128G11  C0CY 8159   2.275   5.398   8.730
   128G11  C0CX 8160   2.227   5.520   8.774
   128G11  C0CW 8161   2.305   5.633   8.758
   128G11  C0CV 8162   2.428   5.619   8.695
   128G11  C0D4 8163   2.471   5.493   8.651
   128G11  C0CU 8164   2.512   5.728   8.679
   128G11  C0CT 8165   2.483   5.851   8.730
   128G11  C0CS 8166   2.355   5.864   8.793
   128G11  C0D6 8167   2.634   5.699   8.626
   128G11  C0EC 8168   2.674   5.578   8.574
   128G11  C07X 8169   2.797   5.565   8.503
   128G11  C0DL 8170   2.723   5.806   8.615
   128G11  C0DK 8171   2.845   5.795   8.556
   128G11  C0DN 8172   2.901   5.915   8.555
   128G11  C0D8 8173   2.695   5.937   8.655
   128G11  C08W 8174   2.069   5.288   8.805
   128G11  C0CQ 8175   2.012   5.417   8.850
   128G11  C093 8176   2.391   5.384   8.663
   128G11  C092 8177   2.592   5.471   8.583
   128G11  C085 8178   2.582   5.118   8.506
   128G11  C07S 8179   2.537   4.882   8.484
   128G11  C06F 8180   2.618   4.636   8.407
   128G11  C07O 8181   2.850   4.970   8.301
   128G11  C07N 8182   2.932   5.078   8.274
   128G11  C05D 8183   2.846   4.623   8.254
   128G11  C05C 8184   2.780   4.510   8.294
   128G11  C05N 8185   2.831   4.406   8.213
   128G11  C05M 8186   3.063   4.447   7.911
   128G11  C05I 8187   3.225   4.572   7.798
   128G11  C061 8188   3.405   4.592   7.581
   128G11  C02Q 8189   3.494   4.491   7.377
   128G11  C02O 8190   3.440   4.272   7.192
   128G11  C03Q 8191   3.282   4.264   7.523
   128G11  C03O 8192   3.098   4.128   7.569
   128G11  C03L 8193   2.948   3.862   7.385
   128G11  C02S 8194   3.235   4.047   7.239
   128G11  C02T 8195   3.195   3.864   7.038
   128G11  C03K 8196   2.921   3.771   7.276
   128G11  C03I 8197   3.163   3.783   6.929
   128G11  C03G 8198   3.098   3.617   6.711
   128G11  H00D 8199   3.075   3.546   6.633
   128G11  C03J 8200   2.873   3.598   7.050
   128G11  C03W 8201   2.650   3.419   7.037
   128G11  C04I 8202   2.562   3.511   7.231
   128G11  C04K 8203   2.378   3.533   7.439
   128G11  C04N 8204   2.301   3.553   7.551
   128G11  C04X 8205   2.252   3.659   7.769
   128G11  C050 8206   2.201   3.776   7.988
   128G11  C05W 8207   2.464   3.875   7.983
   128G11  C05S 8208   2.226   4.115   8.311
   128G11  C05R 8209   2.557   4.073   8.203
   128G11  C05O 8210   2.754   4.287   8.212
   128G11  C05B 8211   2.657   4.515   8.365
   128G11  C05A 8212   2.376   4.292   8.395
   128G11  C07R 8213   2.491   4.646   8.462
   128G11  C08N 8214   2.232   4.682   8.568
   128G11  C08M 8215   2.114   4.705   8.644
   128G11  C08L 8216   2.017   4.602   8.639
   128G11  C091 8217   2.238   4.259   8.364
   128G11  C09K 8218   1.876   4.302   8.327
   128G11  H00M 8219   1.871   4.293   8.220
   128G11  C08K 8220   2.041   4.490   8.561
   128G11  C09J 8221   1.763   4.331   8.416
   128G11  C09I 8222   1.634   4.388   8.407
   128G11  C09L 8223   1.521   4.342   8.333
   128G11  H00N 8224   1.532   4.266   8.257
   128G11  C09Q 8225   1.399   4.396   8.359
   128G11  H00O 8226   1.313   4.348   8.313
   128G11  O00B 8227   1.373   4.501   8.446
   128G11  C09G 8228   1.479   4.542   8.529
   128G11  C09F 8229   1.440   4.638   8.627
   128G11  O00A 8230   1.309   4.661   8.627
   128G11  C09P 8231   1.258   4.762   8.708
   128G11  H00P 8232   1.160   4.746   8.750
   128G11  C09O 8233   1.348   4.865   8.753
   128G11  C09D 8234   1.485   4.829   8.772
   128G11  C09C 8235   1.589   4.909   8.842
   128G11  C09N 8236   1.595   5.039   8.899
   128G11  C09T 8237   1.508   5.138   8.850
   128G11  C09S 8238   1.368   5.111   8.816
   128G11  C0CP 8239   1.310   5.237   8.820
   128G11  C0CN 8240   1.406   5.344   8.837
   128G11  C0CO 8241   1.357   5.472   8.840
   128G11  H014 8242   1.420   5.559   8.855
   128G11  C0CZ 8243   1.218   5.487   8.818
   128G11  H015 8244   1.187   5.590   8.829
   128G11  C0D0 8245   1.122   5.383   8.813
   128G11  C0G5 8246   0.978   5.392   8.827
   128G11  H01F 8247   0.933   5.490   8.833
   128G11  C0G4 8248   0.900   5.286   8.817
   128G11  H01G 8249   0.794   5.299   8.834
   128G11  O00H 8250   0.945   5.151   8.795
   128G11  C0D2 8251   1.082   5.144   8.788
   128G11  C09V 8252   1.148   5.021   8.773
   128G11  H00Q 8253   1.076   4.941   8.764
   128G11  C0D1 8254   1.168   5.253   8.804
   128G11  C09R 8255   1.291   4.994   8.783
   128G11  C09H 8256   1.609   4.476   8.518
   128G11  C09E 8257   1.533   4.704   8.715
   128G11  C09B 8258   1.709   4.857   8.873
   128G11  C08Z 8259   1.888   4.627   8.705
   128G11  C08O 8260   2.080   4.828   8.709
   128G11  C09A 8261   1.801   4.942   8.934
   128G11  C08S 8262   2.030   5.151   8.785
   128G11  C099 8263   1.732   5.062   8.940
   128G11  C09U 8264   1.531   5.284   8.876
   128G11  C0BO 8265   1.680   5.698   9.049
   128G11  C0CL 8266   1.879   5.428   8.891
   128G11  C0D3 8267   2.101   5.527   8.836
   128G11  C0D5 8268   2.265   5.756   8.804
   128G11  C0BR 8269   1.891   5.788   8.973
   128G11  C0BQ 8270   1.768   5.805   9.031
   128G11  C0BL 8271   1.524   5.839   9.161
   128G11  C0AF 8272   1.427   6.092   9.218
   128G11  C0BH 8273   1.770   6.163   9.110
   128G11  C0BG 8274   1.856   6.270   9.116
   128G11  C0BD 8275   1.681   6.419   9.183
   128G11  C0AG 8276   1.385   6.218   9.240
   128G11  C0AI 8277   1.228   6.361   9.358
   128G11  C0AV 8278   1.200   6.558   9.539
   128G11  C0BB 8279   1.462   6.681   9.316
   128G11  O00C 8280   1.310   6.761   9.628
   128G11  C0BC 8281   1.545   6.791   9.344
   128G11  C0B9 8282   1.640   6.544   9.228
   128G11  O00E 8283   1.960   6.717   9.248
   128G11  C0CA 8284   2.087   6.702   9.211
   128G11  O00F 8285   2.166   6.794   9.232
   128G11  C0BF 8286   1.812   6.396   9.157
   128G11  C0C5 8287   2.120   6.575   9.149
   128G11  C0C4 8288   2.254   6.564   9.099
   128G11  H011 8289   2.325   6.645   9.108
   128G11  C0C8 8290   1.988   6.250   9.077
   128G11  C0C2 8291   2.290   6.449   9.028
   128G11  C0C3 8292   2.414   6.431   8.968
   128G11  C0DY 8293   2.517   6.526   8.955
   128G11  H016 8294   2.528   6.630   8.984
   128G11  C0DX 8295   2.605   6.465   8.862
   128G11  C0DW 8296   2.683   6.556   8.778
   128G11  C0BY 8297   2.157   6.113   8.967
   128G11  C0DB 8298   2.445   6.319   8.890
   128G11  C0CC 8299   2.318   5.986   8.841
   128G11  C0D7 8300   2.568   5.966   8.708
   128G11  C0DZ 8301   2.564   6.328   8.825
   128G11  C0DM 8302   2.810   6.010   8.611
   128G11  C0DQ 8303   2.792   6.375   8.636
   128G11  C0DV 8304   2.761   6.508   8.672
   128G11  C0E0 8305   2.693   6.700   8.784
   128G11  C0FO 8306   2.996   6.876   8.707
   128G11  C0E3 8307   2.721   6.784   8.899
   128G11  H017 8308   2.706   6.765   9.004
   128G11  C0GV 8309   3.040   6.939   8.822
   128G11  C0ES 8310   3.089   6.798   8.636
   128G11  C0GQ 8311   3.393   6.956   8.779
   128G11  C0FJ 8312   3.550   6.790   8.484
   128G11  C0ED 8313   3.294   6.670   8.483
   128G11  C0ER 8314   3.354   6.609   8.146
   128G11  C0EP 8315   3.319   6.381   8.149
   128G11  C0E6 8316   3.119   6.479   8.457
   128G11  C0DE 8317   3.059   6.174   8.464
   128G11  C0EA 8318   3.269   6.126   8.146
   128G11  C0DF 8319   3.097   6.035   8.463
   128G11  C080 8320   3.182   5.802   8.203
   128G11  C0DO 8321   3.015   5.922   8.486
   128G11  C0DJ 8322   2.883   5.674   8.491
   128G11  C07K 8323   3.117   5.543   8.238
   128G11  C07W 8324   2.828   5.448   8.446
   128G11  C083 8325   2.905   5.202   8.336
   128G11  C07J 8326   3.144   5.416   8.170
   128G11  C06O 8327   3.194   5.173   8.037
   128G11  C06M 8328   3.033   5.065   8.180
   138G11  C071 8329   1.500   0.746   8.393
   138G11  C07L 8330   1.491   0.855   8.483
   138G11  C07M 8331   1.606   0.924   8.514
   138G11  C07Y 8332   1.609   1.018   8.624
   138G11  C081 8333   1.489   1.056   8.682
   138G11  C082 8334   1.495   1.146   8.794
   138G11  C0DI 8335   1.387   1.180   8.892
   138G11  C0DH 8336   1.253   1.155   8.902
   138G11  C0DG 8337   1.200   1.199   9.028
   138G11  C0E9 8338   1.082   1.265   9.064
   138G11  C0E8 8339   1.121   1.372   9.168
   138G11  C0E7 8340   1.038   1.469   9.239
   138G11  C0EB 8341   0.896   1.476   9.209
   138G11  C0EF 8342   0.799   1.575   9.263
   138G11  C0EE 8343   0.817   1.707   9.309
   138G11  C0FD 8344   0.710   1.807   9.282
   138G11  C0FE 8345   0.610   1.796   9.184
   138G11  H01B 8346   0.598   1.705   9.127
   138G11  C0FF 8347   0.521   1.898   9.148
   138G11  H01A 8348   0.449   1.884   9.068
   138G11  C0FG 8349   0.536   2.021   9.211
   138G11  H018 8350   0.485   2.103   9.162
   138G11  C0FH 8351   0.624   2.033   9.317
   138G11  C0FI 8352   0.631   2.155   9.400
   138G11  H019 8353   0.578   2.247   9.378
   138G11  O00K 8354   0.708   2.164   9.509
   138G11  C0FL 8355   0.797   2.061   9.529
   138G11  C0FK 8356   0.802   1.942   9.455
   138G11  C0FM 8357   0.899   1.845   9.489
   138G11  C0FN 8358   0.988   1.873   9.598
   138G11  C0FP 8359   0.986   2.002   9.655
   138G11  C0GO 8360   1.069   2.047   9.754
   138G11  C0GN 8361   1.096   2.178   9.790
   138G11  C0GR 8362   0.997   2.271   9.743
   138G11  C0GS 8363   1.005   2.411   9.766
   138G11  H01Q 8364   0.925   2.474   9.729
   138G11  C0GT 8365   1.123   2.462   9.825
   138G11  H01O 8366   1.150   2.566   9.837
   138G11  C0GU 8367   1.215   2.366   9.868
   138G11  H01P 8368   1.307   2.398   9.914
   138G11  O00L 8369   0.888   2.220   9.673
   138G11  C0GM 8370   1.203   2.220   9.866
   138G11  C0GL 8371   1.292   2.119   9.909
   138G11  H01R 8372   1.380   2.146   9.965
   138G11  C0GK 8373   1.266   1.983   9.878
   138G11  C0GP 8374   1.338   1.860   9.891
   138G11  C0E2 8375   1.258   1.753   9.837
   138G11  C0E1 8376   1.342   1.661   9.761
   138G11  C0DU 8377   1.329   1.610   9.628
   138G11  C0DT 8378   1.217   1.598   9.555
   138G11  C0E4 8379   1.104   1.672   9.565
   138G11  C0E5 8380   1.025   1.637   9.450
   138G11  C0DS 8381   1.216   1.537   9.432
   138G11  C0DR 8382   1.347   1.501   9.382
   138G11  C0DD 8383   1.370   1.443   9.263
   138G11  C0DC 8384   1.518   1.452   9.245
   138G11  C0DP 8385   1.584   1.525   9.354
   138G11  C0DA 8386   1.720   1.573   9.363
   138G11  C0D9 8387   1.843   1.550   9.278
   138G11  C0CR 8388   1.975   1.602   9.319
   138G11  C0C0 8389   1.990   1.690   9.423
   138G11  C0BZ 8390   2.109   1.741   9.481
   138G11  C0C1 8391   2.112   1.810   9.598
   138G11  C0C7 8392   2.234   1.857   9.651
   138G11  C0C6 8393   2.243   1.929   9.773
   138G11  C0C9 8394   2.369   1.966   9.826
   138G11  C0B8 8395   2.378   2.039   9.953
   138G11  C0B7 8396   2.501   2.077  10.013
   138G11  C0B6 8397   2.540   2.134  10.144
   138G11  C0B5 8398   2.479   2.139  10.275
   138G11  H00Z 8399   2.374   2.117  10.290
   138G11  C0B4 8400   2.584   2.158  10.372
   138G11  H010 8401   2.588   2.153  10.480
   138G11  C0B3 8402   2.710   2.164  10.303
   138G11  C0AP 8403   2.863   2.146  10.299
   138G11  C0AQ 8404   2.881   2.121  10.163
   138G11  C0AR 8405   2.998   2.056  10.114
   138G11  C0AS 8406   2.973   2.000   9.989
   138G11  C0AT 8407   2.853   1.995   9.921
   138G11  C0BA 8408   2.744   2.046   9.975
   138G11  C0AU 8409   2.843   1.931   9.802
   138G11  C0BE 8410   2.718   1.915   9.746
   138G11  C0BI 8411   2.713   1.848   9.622
   138G11  C0BJ 8412   2.829   1.801   9.564
   138G11  C0BK 8413   2.823   1.739   9.445
   138G11  C0BW 8414   2.701   1.711   9.388
   138G11  C0BV 8415   2.583   1.748   9.453
   138G11  C0BU 8416   2.460   1.702   9.406
   138G11  C0BX 8417   2.344   1.749   9.467
   138G11  C0BT 8418   2.460   1.621   9.289
   138G11  C0CD 8419   2.336   1.579   9.238
   138G11  C0CB 8420   2.217   1.618   9.306
   138G11  C0CE 8421   2.336   1.501   9.122
   138G11  C0CK 8422   2.456   1.471   9.057
   138G11  C0BS 8423   2.580   1.510   9.102
   138G11  C0CJ 8424   2.698   1.476   9.035
   138G11  C0BP 8425   2.814   1.529   9.092
   138G11  C0CI 8426   2.935   1.505   9.025
   138G11  C0CH 8427   3.040   1.591   9.061
   138G11  H012 8428   3.122   1.604   8.992
   138G11  C0BN 8429   3.053   1.649   9.188
   138G11  C0CG 8430   3.177   1.690   9.237
   138G11  C0CF 8431   3.301   1.705   9.165
   138G11  H013 8432   3.304   1.695   9.058
   138G11  O00G 8433   3.421   1.719   9.232
   138G11  C0AA 8434   3.428   1.721   9.369
   138G11  C0A9 8435   3.554   1.716   9.431
   138G11  H00U 8436   3.640   1.721   9.366
   138G11  C0A8 8437   3.561   1.716   9.569
   138G11  H00V 8438   3.662   1.711   9.607
   138G11  C0A7 8439   3.450   1.740   9.652
   138G11  C0A6 8440   3.319   1.743   9.583
   138G11  C0A5 8441   3.197   1.776   9.642
   138G11  C0A4 8442   3.196   1.838   9.771
   138G11  C0A3 8443   3.286   1.876   9.879
   138G11  C0A2 8444   3.418   1.844   9.893
   138G11  C0A1 8445   3.494   1.860  10.014
   138G11  C0A0 8446   3.477   1.914  10.152
   138G11  C09Z 8447   3.588   1.893  10.237
   138G11  C09Y 8448   3.573   1.938  10.371
   138G11  H00Y 8449   3.655   1.920  10.439
   138G11  C09X 8450   3.446   1.986  10.415
   138G11  C09W 8451   3.442   2.027  10.550
   138G11  H00R 8452   3.534   2.031  10.607
   138G11  C0AX 8453   3.326   2.056  10.613
   138G11  H00S 8454   3.328   2.087  10.716
   138G11  C0AW 8455   3.214   2.076  10.535
   138G11  H00T 8456   3.129   2.123  10.580
   138G11  C0AN 8457   3.213   2.053  10.396
   138G11  C0AO 8458   3.098   2.082  10.320
   138G11  C0AM 8459   3.334   1.998  10.339
   138G11  C0B2 8460   3.717   1.833  10.205
   138G11  O00D 8461   3.814   1.828  10.274
   138G11  C0B1 8462   3.732   1.789  10.063
   138G11  H00W 8463   3.818   1.731  10.036
   138G11  C0AL 8464   3.346   1.961  10.201
   138G11  C0AK 8465   3.230   1.989  10.123
   138G11  C0B0 8466   3.624   1.804   9.977
   138G11  C0AZ 8467   3.625   1.770   9.837
   138G11  H00X 8468   3.702   1.713   9.788
   138G11  C0AJ 8469   3.212   1.937   9.984
   138G11  C0AH 8470   3.076   1.883   9.813
   138G11  C0AE 8471   3.073   1.763   9.573
   138G11  C0AD 8472   3.071   1.728   9.444
   138G11  C0AY 8473   3.489   1.776   9.788
   138G11  C0AB 8474   3.315   1.717   9.444
   138G11  C0AC 8475   3.190   1.710   9.373
   138G11  C0BM 8476   2.936   1.650   9.264
   138G11  C0CM 8477   2.946   1.410   8.919
   138G11  C09M 8478   2.826   1.378   8.846
   138G11  C098 8479   2.844   1.338   8.710
   138G11  C08R 8480   2.754   1.258   8.621
   138G11  C08Q 8481   2.808   1.225   8.495
   138G11  C08P 8482   2.791   1.122   8.392
   138G11  C08Y 8483   2.900   1.099   8.306
   138G11  C097 8484   3.019   1.153   8.346
   138G11  C096 8485   3.119   1.059   8.328
   138G11  C090 8486   3.065   0.951   8.248
   138G11  C095 8487   3.127   0.824   8.212
   138G11  C094 8488   3.073   0.723   8.134
   138G11  C08J 8489   2.935   0.702   8.093
   138G11  C08I 8490   2.913   0.562   8.104
   138G11  C08H 8491   2.773   0.529   8.123
   138G11  C08G 8492   2.714   0.658   8.162
   138G11  C08F 8493   2.582   0.717   8.189
   138G11  C08E 8494   2.468   0.654   8.137
   138G11  C059 8495   2.462   0.556   8.037
   138G11  C058 8496   2.341   0.515   7.976
   138G11  C057 8497   2.320   0.410   7.885
   138G11  C056 8498   2.433   0.337   7.847
   138G11  C055 8499   2.558   0.384   7.879
   138G11  C054 8500   2.646   0.275   7.870
   138G11  C053 8501   2.568   0.157   7.835
   138G11  C052 8502   2.596   0.018   7.839
   138G11  C051 8503   2.725  -0.030   7.890
   138G11  C05U 8504   2.831   0.050   7.959
   138G11  C05T 8505   2.839   0.185   8.002
   138G11  C06K 8506   2.975   0.204   8.041
   138G11  H00J 8507   3.012   0.303   8.066
   138G11  C06L 8508   3.050   0.079   8.037
   138G11  H00I 8509   3.149   0.050   8.067
   138G11  C05V 8510   2.952  -0.012   7.995
   138G11  C06J 8511   2.985  -0.146   7.968
   138G11  H00K 8512   3.085  -0.183   7.988
   138G11  C05X 8513   2.886  -0.227   7.903
   138G11  C06I 8514   2.915  -0.363   7.861
   138G11  H00L 8515   3.014  -0.403   7.879
   138G11  C04Z 8516   2.822  -0.452   7.807
   138G11  C06H 8517   2.861  -0.589   7.764
   138G11  H00H 8518   2.962  -0.620   7.789
   138G11  C04Y 8519   2.761  -0.675   7.724
   138G11  C06G 8520   2.792  -0.813   7.700
   138G11  O009 8521   2.896  -0.866   7.739
   138G11  O008 8522   2.694  -0.899   7.649
   138G11  C04P 8523   2.566  -0.854   7.642
   138G11  C04J 8524   2.452  -0.936   7.609
   138G11  C04Q 8525   2.455  -1.071   7.575
   138G11  H00E 8526   2.555  -1.113   7.572
   138G11  C04M 8527   2.336  -1.145   7.547
   138G11  C04R 8528   2.328  -1.286   7.517
   138G11  H00F 8529   2.424  -1.336   7.513
   138G11  C04S 8530   2.213  -1.356   7.517
   138G11  H00G 8531   2.212  -1.464   7.510
   138G11  O007 8532   2.091  -1.299   7.544
   138G11  C03V 8533   2.097  -1.160   7.571
   138G11  C03U 8534   1.972  -1.099   7.595
   138G11  O006 8535   1.871  -1.187   7.614
   138G11  C03F 8536   1.746  -1.128   7.646
   138G11  C03E 8537   1.727  -0.986   7.647
   138G11  C03D 8538   1.841  -0.902   7.623
   138G11  C03C 8539   1.819  -0.766   7.628
   138G11  C03B 8540   1.687  -0.720   7.652
   138G11  C03A 8541   1.659  -0.580   7.661
   138G11  C039 8542   1.761  -0.486   7.663
   138G11  C038 8543   1.688  -0.361   7.695
   138G11  C037 8544   1.552  -0.402   7.701
   138G11  C036 8545   1.460  -0.305   7.716
   138G11  C02R 8546   1.327  -0.321   7.741
   138G11  C035 8547   1.286  -0.195   7.781
   138G11  C03R 8548   1.385  -0.095   7.762
   138G11  C03S 8549   1.394   0.009   7.860
   138G11  C049 8550   1.518   0.076   7.863
   138G11  C048 8551   1.631   0.007   7.814
   138G11  C03P 8552   1.631  -0.127   7.763
   138G11  C047 8553   1.747   0.089   7.818
   138G11  C046 8554   1.875   0.052   7.773
   138G11  C045 8555   1.931  -0.064   7.726
   138G11  C03T 8556   1.871  -0.192   7.707
   138G11  C044 8557   1.974  -0.281   7.664
   138G11  C043 8558   2.090  -0.209   7.642
   138G11  C042 8559   2.202  -0.282   7.670
   138G11  C041 8560   2.146  -0.418   7.666
   138G11  C040 8561   2.222  -0.538   7.663
   138G11  C03Z 8562   2.183  -0.671   7.636
   138G11  C04H 8563   2.301  -0.747   7.638
   138G11  C04G 8564   2.411  -0.661   7.659
   138G11  C03N 8565   2.056  -0.741   7.621
   138G11  C03Y 8566   2.076  -0.879   7.608
   138G11  C03X 8567   2.203  -0.945   7.585
   138G11  C04F 8568   2.369  -0.534   7.680
   138G11  C04E 8569   2.471  -0.441   7.706
   138G11  C04O 8570   2.598  -0.488   7.728
   138G11  C04D 8571   2.444  -0.303   7.722
   138G11  C04V 8572   2.547  -0.217   7.775
   138G11  C04W 8573   2.673  -0.267   7.809
   138G11  C04C 8574   2.330  -0.223   7.705
   138G11  C04L 8575   2.366  -0.083   7.742
   138G11  C04U 8576   2.289   0.031   7.717
   138G11  C05Q 8577   2.321   0.162   7.752
   138G11  C05P 8578   2.203   0.229   7.782
   138G11  C04T 8579   2.094   0.150   7.768
   138G11  C04B 8580   2.149   0.028   7.723
   138G11  C03M 8581   1.998  -0.421   7.661
   138G11  C04A 8582   2.064  -0.079   7.691
   138G11  C05H 8583   1.956   0.155   7.799
   138G11  C05G 8584   1.883   0.255   7.861
   138G11  C05F 8585   1.937   0.382   7.902
   138G11  C05E 8586   1.879   0.463   8.008
   138G11  C05L 8587   1.754   0.467   8.079
   138G11  C05K 8588   1.640   0.384   8.051
   138G11  C05J 8589   1.631   0.273   7.959
   138G11  C066 8590   1.517   0.425   8.118
   138G11  C065 8591   1.511   0.528   8.211
   138G11  C064 8592   1.625   0.603   8.241
   138G11  C06N 8593   1.395   0.561   8.276
   138G11  C069 8594   1.277   0.482   8.255
   138G11  C06P 8595   1.161   0.507   8.334
   138G11  C06R 8596   1.052   0.427   8.326
   138G11  C06B 8597   1.054   0.317   8.236
   138G11  C06S 8598   0.952   0.223   8.254
   138G11  C02G 8599   0.957   0.107   8.175
   138G11  C02F 8600   0.851   0.016   8.181
   138G11  C027 8601   0.745   0.034   8.272
   138G11  C026 8602   0.652  -0.068   8.287
   138G11  C00E 8603   0.553  -0.051   8.385
   138G11  C00D 8604   0.478  -0.158   8.420
   138G11  C00C 8605   0.402  -0.147   8.526
   138G11  C00B 8606   0.387  -0.044   8.605
   138G11  C015 8607   0.467   0.070   8.569
   138G11  C07F 8608   0.458   0.180   8.649
   138G11  C07E 8609   0.554   0.283   8.626
   138G11  C06W 8610   0.643   0.272   8.523
   138G11  C06V 8611   0.644   0.161   8.446
   138G11  C06X 8612   0.735   0.373   8.510
   138G11  C07B 8613   0.733   0.487   8.587
   138G11  C07C 8614   0.629   0.503   8.680
   138G11  C0FU 8615   0.624   0.616   8.763
   138G11  C0F7 8616   0.526   0.625   8.861
   138G11  C0F6 8617   0.522   0.747   8.932
   138G11  C0F8 8618   0.419   0.762   9.021
   138G11  C0F9 8619   0.406   0.882   9.087
   138G11  C0FA 8620   0.299   0.900   9.177
   138G11  C0FZ 8621   0.216   0.798   9.204
   138G11  C0G0 8622   0.111   0.815   9.295
   138G11  C0GD 8623   0.084   0.934   9.354
   138G11  C0FC 8624   0.175   1.039   9.330
   138G11  C0GH 8625   0.155   1.164   9.389
   138G11  C0EY 8626   0.243   1.270   9.362
   138G11  C0EX 8627   0.232   1.393   9.435
   138G11  C0EW 8628   0.327   1.489   9.423
   138G11  C0FR 8629   0.309   1.617   9.482
   138G11  H01D 8630   0.375   1.699   9.457
   138G11  C0FS 8631   0.202   1.641   9.570
   138G11  H01C 8632   0.186   1.732   9.626
   138G11  C0GJ 8633   0.121   1.533   9.599
   138G11  H01N 8634   0.038   1.552   9.665
   138G11  C0EV 8635   0.447   1.462   9.347
   138G11  C0FT 8636   0.554   1.551   9.343
   138G11  H01E 8637   0.557   1.648   9.391
   138G11  C0EU 8638   0.455   1.341   9.274
   138G11  C0ET 8639   0.569   1.302   9.205
   138G11  C0EI 8640   0.586   1.191   9.135
   138G11  C0F1 8641   0.481   1.102   9.141
   138G11  C0F0 8642   0.370   1.126   9.219
   138G11  C0EH 8643   0.708   1.171   9.063
   138G11  C0EG 8644   0.829   1.255   9.077
   138G11  C0EJ 8645   0.716   1.057   8.986
   138G11  C0F3 8646   0.608   0.965   8.985
   138G11  C0EK 8647   0.825   1.040   8.898
   138G11  C0EL 8648   0.946   1.116   8.909
   138G11  C0EM 8649   1.047   1.086   8.802
   138G11  C0EN 8650   1.019   0.989   8.710
   138G11  C07I 8651   1.130   0.963   8.633
   138G11  C074 8652   1.135   0.849   8.553
   138G11  C073 8653   1.261   0.818   8.504
   138G11  C072 8654   1.269   0.703   8.427
   138G11  C075 8655   1.023   0.768   8.547
   138G11  C076 8656   0.919   0.790   8.638
   138G11  C078 8657   0.817   0.695   8.648
   138G11  C07G 8658   1.041   0.650   8.485
   138G11  C070 8659   0.940   0.557   8.495
   138G11  C07Z 8660   1.238   1.037   8.681
   138G11  C077 8661   0.912   0.902   8.719
   138G11  C0EO 8662   0.815   0.930   8.812
   138G11  C0F4 8663   0.716   0.835   8.827
   138G11  C0EQ 8664   0.677   1.398   9.203
   138G11  C0FQ 8665   0.126   1.412   9.524
   138G11  C0GI 8666   0.033   1.310   9.532
   138G11  H01L 8667  -0.049   1.320   9.602
   138G11  C0EZ 8668   0.355   1.245   9.287
   138G11  C0GG 8669   0.045   1.187   9.470
   138G11  C0GF 8670  -0.050   1.083   9.489
   138G11  H01M 8671  -0.137   1.097   9.552
   138G11  C0GE 8672  -0.026   0.958   9.433
   138G11  H01K 8673  -0.091   0.875   9.455
   138G11  O00J 8674   0.044   0.705   9.341
   138G11  C0GA 8675   0.057   0.586   9.278
   138G11  C0G9 8676  -0.019   0.480   9.319
   138G11  H01H 8677  -0.091   0.497   9.398
   138G11  C0G8 8678  -0.009   0.358   9.252
   138G11  C0G7 8679  -0.096   0.247   9.279
   138G11  H01I 8680  -0.176   0.263   9.350
   138G11  O00I 8681  -0.094   0.127   9.216
   138G11  C0G6 8682   0.002   0.118   9.112
   138G11  H01J 8683   0.008   0.014   9.084
   138G11  C02D 8684   0.090   0.222   9.074
   138G11  C02C 8685   0.181   0.205   8.968
   138G11  C017 8686   0.203   0.076   8.898
   138G11  C016 8687   0.292   0.071   8.789
   138G11  O001 8688   0.141  -0.040   8.937
   138G11  C018 8689   0.145  -0.156   8.864
   138G11  C009 8690   0.232  -0.162   8.757
   138G11  C008 8691   0.257  -0.274   8.675
   138G11  C007 8692   0.214  -0.413   8.676
   138G11  C006 8693   0.121  -0.471   8.761
   138G11  C005 8694   0.077  -0.606   8.753
   138G11  C004 8695   0.113  -0.715   8.662
   138G11  C003 8696   0.209  -0.720   8.555
   138G11  C002 8697   0.237  -0.848   8.494
   138G11  C00P 8698   0.336  -0.861   8.392
   138G11  C00O 8699   0.392  -0.982   8.354
   138G11  C00N 8700   0.501  -0.994   8.270
   138G11  C010 8701   0.570  -1.114   8.254
   138G11  C011 8702   0.677  -1.130   8.170
   138G11  C01Q 8703   0.741  -1.253   8.165
   138G11  C01U 8704   0.700  -1.361   8.243
   138G11  C012 8705   0.578  -1.352   8.313
   138G11  H000 8706   0.535  -1.441   8.354
   138G11  C01V 8707   0.778  -1.480   8.230
   138G11  H007 8708   0.740  -1.561   8.290
   138G11  O005 8709   0.896  -1.480   8.165
   138G11  C01W 8710   0.922  -1.377   8.076
   138G11  C031 8711   1.024  -1.396   7.985
   138G11  C032 8712   1.050  -1.305   7.887
   138G11  H00A 8713   1.121  -1.322   7.808
   138G11  C033 8714   0.984  -1.182   7.884
   138G11  H00B 8715   1.004  -1.114   7.803
   138G11  C01O 8716   0.888  -1.156   7.990
   138G11  C01N 8717   0.824  -1.034   7.999
   138G11  C01M 8718   0.869  -0.914   7.926
   138G11  C01L 8719   0.992  -0.862   7.869
   138G11  C01K 8720   0.968  -0.720   7.839
   138G11  C01Y 8721   1.064  -0.624   7.824
   138G11  C02I 8722   1.195  -0.667   7.803
   138G11  C02N 8723   1.288  -0.569   7.759
   138G11  C02M 8724   1.416  -0.619   7.719
   138G11  C02L 8725   1.449  -0.754   7.718
   138G11  C02K 8726   1.355  -0.843   7.774
   138G11  C02U 8727   1.393  -0.977   7.792
   138G11  C02V 8728   1.505  -1.028   7.730
   138G11  C03H 8729   1.520  -1.164   7.712
   138G11  H00C 8730   1.443  -1.238   7.728
   138G11  C02W 8731   1.322  -1.049   7.879
   138G11  C02X 8732   1.212  -0.990   7.931
   138G11  C02Y 8733   1.197  -1.060   8.049
   138G11  H008 8734   1.111  -1.058   8.115
   138G11  C02Z 8735   1.294  -1.165   8.064
   138G11  O004 8736   1.302  -1.252   8.149
   138G11  O003 8737   1.377  -1.149   7.963
   138G11  C02J 8738   1.222  -0.803   7.810
   138G11  C01Z 8739   1.027  -0.495   7.846
   138G11  C020 8740   0.902  -0.462   7.903
   138G11  C01I 8741   0.807  -0.557   7.928
   138G11  C01H 8742   0.702  -0.548   8.017
   138G11  C00K 8743   0.643  -0.660   8.074
   138G11  C01S 8744   0.683  -0.787   8.040
   138G11  C014 8745   0.651  -0.897   8.112
   138G11  C00J 8746   0.545  -0.647   8.169
   138G11  C00I 8747   0.509  -0.520   8.217
   138G11  C00H 8748   0.588  -0.409   8.172
   138G11  C00G 8749   0.574  -0.286   8.236
   138G11  C00S 8750   0.417  -0.512   8.320
   138G11  C00T 8751   0.409  -0.388   8.374
   138G11  C00U 8752   0.339  -0.379   8.497
   138G11  C00R 8753   0.351  -0.620   8.378
   138G11  C00L 8754   0.487  -0.756   8.230
   138G11  C028 8755   0.684  -0.426   8.077
   138G11  C023 8756   0.774  -0.317   8.054
   138G11  C024 8757   0.766  -0.202   8.123
   138G11  C021 8758   0.878  -0.336   7.962
   138G11  C022 8759   0.971  -0.234   7.942
   138G11  C02H 8760   0.961  -0.119   8.011
   138G11  C030 8761   1.065  -0.027   8.006
   138G11  C034 8762   1.174  -0.050   7.924
   138G11  C02P 8763   1.086  -0.267   7.871
   138G11  C02B 8764   1.121  -0.398   7.825
   138G11  C01J 8765   0.842  -0.686   7.891
   138G11  C01X 8766   1.133  -0.894   7.875
   138G11  C01T 8767   0.788  -0.797   7.948
   138G11  H009 8768   1.079  -1.489   7.981
   138G11  C01P 8769   0.848  -1.261   8.075
   138G11  C01R 8770   0.721  -1.016   8.093
   138G11  C00Z 8771   0.515  -1.226   8.317
   138G11  O000 8772   0.394  -1.219   8.384
   138G11  C00M 8773   0.546  -0.886   8.205
   138G11  C00Y 8774   0.336  -1.104   8.405
   138G11  C013 8775   0.222  -1.097   8.489
   138G11  H001 8776   0.175  -1.186   8.528
   138G11  C00Q 8777   0.381  -0.745   8.326
   138G11  C001 8778   0.179  -0.968   8.541
   138G11  C000 8779   0.073  -0.954   8.634
   138G11  H006 8780   0.016  -1.037   8.675
   138G11  C00W 8781   0.272  -0.610   8.496
   138G11  C01G 8782   0.041  -0.828   8.687
   138G11  H005 8783  -0.045  -0.822   8.752
   138G11  C01C 8784  -0.016  -0.617   8.866
   138G11  H002 8785  -0.078  -0.699   8.897
   138G11  C01B 8786  -0.022  -0.492   8.938
   138G11  C01D 8787  -0.099  -0.463   9.054
   138G11  H003 8788  -0.165  -0.536   9.099
   138G11  C01E 8789  -0.093  -0.332   9.090
   138G11  H004 8790  -0.152  -0.300   9.174
   138G11  O002 8791  -0.007  -0.233   9.030
   138G11  C01A 8792   0.060  -0.402   8.866
   138G11  C00V 8793   0.268  -0.483   8.562
   138G11  C019 8794   0.066  -0.265   8.916
   138G11  C02E 8795   0.265   0.313   8.934
   138G11  C0FX 8796   0.256   0.434   9.007
   138G11  C0FW 8797   0.338   0.540   8.978
   138G11  C0GB 8798   0.161   0.450   9.110
   138G11  C0G3 8799   0.356   0.301   8.826
   138G11  C07H 8800   0.449   0.408   8.806
   138G11  C0GC 8801   0.082   0.343   9.145
   138G11  C0G2 8802   0.152   0.569   9.173
   138G11  C0G1 8803   0.236   0.675   9.143
   138G11  C0FB 8804   0.279   1.026   9.238
   138G11  C0F2 8805   0.498   0.984   9.070
   138G11  C0FY 8806   0.329   0.659   9.043
   138G11  C0F5 8807   0.614   0.852   8.913
   138G11  C0FV 8808   0.439   0.524   8.883
   138G11  C079 8809   0.717   0.716   8.746
   138G11  C07A 8810   0.831   0.581   8.572
   138G11  C06Y 8811   0.837   0.358   8.408
   138G11  C07D 8812   0.537   0.398   8.699
   138G11  C01F 8813   0.366   0.183   8.755
   138G11  C00A 8814   0.304  -0.046   8.716
   138G11  C00X 8815   0.325  -0.257   8.556
   138G11  C00F 8816   0.479  -0.274   8.339
   138G11  C029 8817   0.552   0.065   8.464
   138G11  C025 8818   0.662  -0.183   8.211
   138G11  C06U 8819   0.744   0.148   8.348
   138G11  C02A 8820   0.856  -0.098   8.105
   138G11  C05Y 8821   1.065   0.085   8.089
   138G11  C05Z 8822   1.172   0.177   8.084
   138G11  C060 8823   1.284   0.155   8.002
   138G11  C062 8824   1.396   0.237   8.007
   138G11  C06T 8825   0.845   0.240   8.340
   138G11  C06A 8826   1.172   0.294   8.158
   138G11  C06Z 8827   0.943   0.445   8.408
   138G11  C06Q 8828   1.155   0.620   8.414
   138G11  C068 8829   1.285   0.375   8.176
   138G11  C067 8830   1.402   0.345   8.103
   138G11  C063 8831   1.749   0.571   8.177
   138G11  C06C 8832   1.859   0.647   8.217
   138G11  C06D 8833   1.982   0.633   8.159
   138G11  C06E 8834   2.103   0.689   8.195
   138G11  C07Q 8835   2.097   0.777   8.301
   138G11  C07P 8836   1.973   0.805   8.356
   138G11  C07T 8837   1.970   0.906   8.450
   138G11  C07U 8838   1.849   0.944   8.500
   138G11  C07V 8839   1.848   1.039   8.606
   138G11  C084 8840   1.966   1.097   8.649
   138G11  C08C 8841   2.084   1.070   8.588
   138G11  C08B 8842   2.200   1.126   8.633
   138G11  C08A 8843   2.313   1.095   8.565
   138G11  C089 8844   2.324   1.009   8.462
   138G11  C088 8845   2.445   0.978   8.402
   138G11  C087 8846   2.455   0.870   8.316
   138G11  C086 8847   2.336   0.802   8.281
   138G11  C08X 8848   2.564   1.041   8.449
   138G11  C08T 8849   2.559   1.119   8.569
   138G11  C08D 8850   2.209   0.938   8.429
   138G11  C08U 8851   2.432   1.144   8.618
   138G11  C08V 8852   2.438   1.224   8.727
   138G11  C0CY 8853   2.320   1.258   8.792
   138G11  C0CX 8854   2.328   1.339   8.903
   138G11  C0CW 8855   2.211   1.370   8.968
   138G11  C0CV 8856   2.093   1.318   8.916
   138G11  C0D4 8857   2.088   1.238   8.805
   138G11  C0CU 8858   1.980   1.350   8.989
   138G11  C0CT 8859   1.972   1.439   9.098
   138G11  C0CS 8860   2.092   1.486   9.149
   138G11  C0D6 8861   1.866   1.304   8.926
   138G11  C0EC 8862   1.856   1.216   8.817
   138G11  C07X 8863   1.733   1.165   8.771
   138G11  C0DL 8864   1.748   1.339   8.988
   138G11  C0DK 8865   1.626   1.288   8.943
   138G11  C0DN 8866   1.532   1.327   9.028
   138G11  C0D8 8867   1.730   1.415   9.104
   138G11  C08W 8868   2.562   1.257   8.770
   138G11  C0CQ 8869   2.572   1.348   8.878
   138G11  C093 8870   2.205   1.206   8.745
   138G11  C092 8871   1.967   1.190   8.753
   138G11  C085 8872   2.087   0.971   8.489
   138G11  C07S 8873   2.216   0.836   8.338
   138G11  C06F 8874   2.223   0.655   8.135
   138G11  C07O 8875   1.857   0.744   8.316
   138G11  C07N 8876   1.735   0.779   8.369
   138G11  C05D 8877   1.984   0.544   8.053
   138G11  C05C 8878   2.104   0.514   7.992
   138G11  C05N 8879   2.076   0.417   7.898
   138G11  C05M 8880   1.751   0.214   7.887
   138G11  C05I 8881   1.516   0.196   7.940
   138G11  C061 8882   1.283   0.037   7.929
   138G11  C02Q 8883   1.177  -0.166   7.858
   138G11  C02O 8884   1.244  -0.432   7.768
   138G11  C03Q 8885   1.501  -0.176   7.748
   138G11  C03O 8886   1.736  -0.226   7.724
   138G11  C03L 8887   1.899  -0.527   7.652
   138G11  C02S 8888   1.530  -0.531   7.696
   138G11  C02T 8889   1.579  -0.801   7.684
   138G11  C03K 8890   1.928  -0.675   7.630
   138G11  C03I 8891   1.602  -0.938   7.681
   138G11  C03G 8892   1.640  -1.219   7.671
   138G11  H00D 8893   1.657  -1.325   7.660
   138G11  C03J 8894   1.964  -0.959   7.606
   138G11  C03W 8895   2.215  -1.083   7.566
   138G11  C04I 8896   2.322  -0.884   7.613
   138G11  C04K 8897   2.537  -0.720   7.668
   138G11  C04N 8898   2.630  -0.626   7.704
   138G11  C04X 8899   2.697  -0.402   7.781
   138G11  C050 8900   2.757  -0.170   7.869
   138G11  C05W 8901   2.503  -0.081   7.795
   138G11  C05S 8902   2.737   0.290   7.977
   138G11  C05R 8903   2.440   0.212   7.797
   138G11  C05O 8904   2.197   0.352   7.849
   138G11  C05B 8905   2.229   0.565   8.037
   138G11  C05A 8906   2.570   0.465   7.992
   138G11  C07R 8907   2.344   0.701   8.186
   138G11  C08N 8908   2.582   0.833   8.272
   138G11  C08M 8909   2.694   0.914   8.295
   138G11  C08L 8910   2.813   0.882   8.232
   138G11  C091 8911   2.694   0.428   8.043
   138G11  C09K 8912   3.009   0.512   8.190
   138G11  H00M 8913   3.003   0.424   8.252
   138G11  C08K 8914   2.823   0.760   8.160
   138G11  C09J 8915   3.121   0.597   8.185
   138G11  C09I 8916   3.241   0.633   8.254
   138G11  C09L 8917   3.347   0.553   8.298
   138G11  H00N 8918   3.346   0.445   8.288
   138G11  C09Q 8919   3.450   0.615   8.362
   138G11  H00O 8920   3.524   0.555   8.413
   138G11  O00B 8921   3.460   0.753   8.365
   138G11  C09G 8922   3.345   0.827   8.343
   138G11  C09F 8923   3.343   0.960   8.407
   138G11  O00A 8924   3.463   0.976   8.477
   138G11  C09P 8925   3.483   1.103   8.516
   138G11  H00P 8926   3.563   1.166   8.478
   138G11  C09O 8927   3.379   1.178   8.575
   138G11  C09D 8928   3.253   1.164   8.505
   138G11  C09C 8929   3.132   1.236   8.531
   138G11  C09N 8930   3.085   1.307   8.647
   138G11  C09T 8931   3.146   1.301   8.778
   138G11  C09S 8932   3.289   1.288   8.788
   138G11  C0CP 8933   3.311   1.318   8.919
   138G11  C0CN 8934   3.197   1.358   8.991
   138G11  C0CO 8935   3.221   1.384   9.125
   138G11  H014 8936   3.140   1.393   9.196
   138G11  C0CZ 8937   3.353   1.405   9.161
   138G11  H015 8938   3.362   1.443   9.262
   138G11  C0D0 8939   3.472   1.389   9.079
   138G11  C0G5 8940   3.598   1.435   9.114
   138G11  H01F 8941   3.607   1.478   9.212
   138G11  C0G4 8942   3.702   1.406   9.034
   138G11  H01G 8943   3.800   1.439   9.068
   138G11  O00H 8944   3.687   1.347   8.910
   138G11  C0D2 8945   3.560   1.315   8.873
   138G11  C09V 8946   3.531   1.269   8.743
   138G11  H00Q 8947   3.616   1.254   8.679
   138G11  C0D1 8948   3.450   1.338   8.957
   138G11  C09R 8949   3.397   1.252   8.696
   138G11  C09H 8950   3.245   0.773   8.269
   138G11  C09E 8951   3.246   1.064   8.399
   138G11  C09B 8952   3.032   1.242   8.442
   138G11  C08Z 8953   2.921   0.970   8.254
   138G11  C08O 8954   2.686   1.026   8.381
   138G11  C09A 8955   2.920   1.312   8.490
   138G11  C08S 8956   2.642   1.196   8.664
   138G11  C099 8957   2.955   1.362   8.616
   138G11  C09U 8958   3.082   1.355   8.895
   138G11  C0BO 8959   2.817   1.601   9.213
   138G11  C0CL 8960   2.697   1.399   8.917
   138G11  C0D3 8961   2.451   1.384   8.943
   138G11  C0D5 8962   2.210   1.446   9.080
   138G11  C0BR 8963   2.578   1.585   9.222
   138G11  C0BQ 8964   2.700   1.629   9.275
   138G11  C0BL 8965   2.946   1.706   9.384
   138G11  C0AF 8966   2.952   1.809   9.625
   138G11  C0BH 8967   2.589   1.823   9.570
   138G11  C0BG 8968   2.474   1.866   9.635
   138G11  C0BD 8969   2.604   1.967   9.814
   138G11  C0AG 8970   2.953   1.874   9.739
   138G11  C0AI 8971   3.084   1.948   9.931
   138G11  C0AV 8972   3.113   2.042  10.184
   138G11  C0BB 8973   2.764   2.125  10.086
   138G11  O00C 8974   2.979   2.133  10.379
   138G11  C0BC 8975   2.671   2.165  10.171
   138G11  C0B9 8976   2.617   2.034   9.935
   138G11  O00E 8977   2.258   2.053  10.018
   138G11  C0CA 8978   2.132   2.017   9.972
   138G11  O00F 8979   2.040   2.040  10.044
   138G11  C0BF 8980   2.481   1.932   9.760
   138G11  C0C5 8981   2.126   1.957   9.845
   138G11  C0C4 8982   2.002   1.908   9.800
   138G11  H011 8983   1.916   1.924   9.864
   138G11  C0C8 8984   2.350   1.830   9.583
   138G11  C0C2 8985   2.000   1.836   9.675
   138G11  C0C3 8986   1.880   1.784   9.622
   138G11  C0DY 8987   1.756   1.799   9.675
   138G11  H016 8988   1.715   1.849   9.761
   138G11  C0DX 8989   1.676   1.714   9.596
   138G11  C0DW 8990   1.545   1.690   9.637
   138G11  C0BY 8991   2.226   1.703   9.413
   138G11  C0DB 8992   1.873   1.720   9.500
   138G11  C0CC 8993   2.096   1.570   9.257
   138G11  C0D7 8994   1.849   1.469   9.162
   138G11  C0DZ 8995   1.747   1.657   9.475
   138G11  C0DM 8996   1.587   1.414   9.128
   138G11  C0DQ 8997   1.472   1.545   9.438
   138G11  C0DV 8998   1.454   1.608   9.565
   138G11  C0E0 8999   1.473   1.724   9.758
   138G11  C0FO 9000   1.149   1.816   9.772
   138G11  C0E3 9001   1.470   1.855   9.829
   138G11  H017 9002   1.535   1.939   9.812
   138G11  C0GV 9003   1.150   1.947   9.814
   138G11  C0ES 9004   1.076   1.777   9.652
   138G11  C0GQ 9005   0.892   2.097   9.619
   138G11  C0FJ 9006   0.711   1.929   9.347
   138G11  C0ED 9007   0.914   1.725   9.409
   138G11  C0ER 9008   0.665   1.519   9.268
   138G11  C0EP 9009   0.805   1.377   9.156
   138G11  C0E6 9010   1.089   1.539   9.364
   138G11  C0DE 9011   1.270   1.366   9.181
   138G11  C0EA 9012   0.954   1.208   9.019
   138G11  C0DF 9013   1.306   1.267   9.091
   138G11  C080 9014   1.186   1.121   8.788
   138G11  C0DO 9015   1.411   1.266   9.007
   138G11  C0DJ 9016   1.616   1.196   8.836
   138G11  C07K 9017   1.368   1.000   8.629
   138G11  C07W 9018   1.730   1.070   8.672
   138G11  C083 9019   1.726   0.886   8.462
   138G11  C07J 9020   1.374   0.896   8.532
   138G11  C06O 9021   1.386   0.667   8.369
   138G11  C06M 9022   1.617   0.710   8.335
   148G11  C071 9023   3.726   3.881  10.838
   148G11  C07L 9024   3.825   3.855  10.742
   148G11  C07M 9025   3.832   3.740  10.674
   148G11  C07Y 9026   3.939   3.710  10.581
   148G11  C081 9027   4.041   3.804  10.560
   148G11  C082 9028   4.142   3.768  10.461
   148G11  C0DI 9029   4.242   3.851  10.395
   148G11  C0DH 9030   4.285   3.983  10.416
   148G11  C0DG 9031   4.364   4.027  10.303
   148G11  C0E9 9032   4.470   4.117  10.284
   148G11  C0E8 9033   4.560   4.057  10.182
   148G11  C0E7 9034   4.695   4.097  10.146
   148G11  C0EB 9035   4.762   4.215  10.194
   148G11  C0EF 9036   4.899   4.255  10.175
   148G11  C0EE 9037   5.016   4.185  10.139
   148G11  C0FD 9038   5.129   4.200  10.224
   148G11  C0FE 9039   5.132   4.263  10.350
   148G11  H01B 9040   5.043   4.294  10.402
   148G11  C0FF 9041   5.249   4.292  10.422
   148G11  H01A 9042   5.240   4.340  10.518
   148G11  C0FG 9043   5.369   4.243  10.364
   148G11  H018 9044   5.460   4.253  10.422
   148G11  C0FH 9045   5.376   4.180  10.240
   148G11  C0FI 9046   5.494   4.133  10.176
   148G11  H019 9047   5.588   4.164  10.221
   148G11  O00K 9048   5.505   4.062  10.062
   148G11  C0FL 9049   5.381   4.031  10.002
   148G11  C0FK 9050   5.256   4.088  10.049
   148G11  C0FM 9051   5.132   4.060   9.977
   148G11  C0FN 9052   5.139   3.992   9.853
   148G11  C0FP 9053   5.260   3.944   9.811
   148G11  C0GO 9054   5.274   3.861   9.703
   148G11  C0GN 9055   5.377   3.775   9.673
   148G11  C0GR 9056   5.492   3.780   9.763
   148G11  C0GS 9057   5.604   3.699   9.747
   148G11  H01Q 9058   5.685   3.709   9.818
   148G11  C0GT 9059   5.603   3.606   9.636
   148G11  H01O 9060   5.691   3.543   9.637
   148G11  C0GU 9061   5.493   3.595   9.555
   148G11  H01P 9062   5.489   3.514   9.483
   148G11  O00L 9063   5.488   3.871   9.866
   148G11  C0GM 9064   5.373   3.678   9.566
   148G11  C0GL 9065   5.258   3.660   9.487
   148G11  H01R 9066   5.239   3.582   9.415
   148G11  C0GK 9067   5.152   3.754   9.514
   148G11  C0GP 9068   5.015   3.762   9.475
   148G11  C0E2 9069   4.942   3.877   9.543
   148G11  C0E1 9070   4.816   3.831   9.586
   148G11  C0DU 9071   4.756   3.842   9.712
   148G11  C0DT 9072   4.791   3.924   9.817
   148G11  C0E4 9073   4.908   3.992   9.839
   148G11  C0E5 9074   4.893   4.043   9.967
   148G11  C0DS 9075   4.713   3.935   9.934
   148G11  C0DR 9076   4.620   3.831   9.948
   148G11  C0DD 9077   4.536   3.818  10.053
   148G11  C0DC 9078   4.475   3.684  10.034
   148G11  C0DP 9079   4.523   3.618   9.913
   148G11  C0DA 9080   4.487   3.482   9.860
   148G11  C0D9 9081   4.388   3.380   9.900
   148G11  C0CR 9082   4.372   3.256   9.829
   148G11  C0C0 9083   4.468   3.213   9.741
   148G11  C0BZ 9084   4.486   3.084   9.690
   148G11  C0C1 9085   4.602   3.047   9.614
   148G11  C0C7 9086   4.609   2.915   9.569
   148G11  C0C6 9087   4.713   2.875   9.483
   148G11  C0C9 9088   4.723   2.744   9.442
   148G11  C0B8 9089   4.845   2.701   9.380
   148G11  C0B7 9090   4.864   2.573   9.326
   148G11  C0B6 9091   4.974   2.504   9.266
   148G11  C0B5 9092   5.099   2.516   9.330
   148G11  H00Z 9093   5.132   2.595   9.396
   148G11  C0B4 9094   5.169   2.394   9.306
   148G11  H010 9095   5.264   2.364   9.348
   148G11  C0B3 9096   5.083   2.304   9.240
   148G11  C0AP 9097   5.044   2.163   9.252
   148G11  C0AQ 9098   4.903   2.170   9.244
   148G11  C0AR 9099   4.828   2.081   9.328
   148G11  C0AS 9100   4.700   2.129   9.356
   148G11  C0AT 9101   4.658   2.260   9.345
   148G11  C0BA 9102   4.748   2.355   9.301
   148G11  C0AU 9103   4.548   2.302   9.419
   148G11  C0BE 9104   4.534   2.434   9.452
   148G11  C0BI 9105   4.428   2.474   9.538
   148G11  C0BJ 9106   4.342   2.378   9.588
   148G11  C0BK 9107   4.235   2.413   9.665
   148G11  C0BW 9108   4.212   2.547   9.700
   148G11  C0BV 9109   4.310   2.639   9.662
   148G11  C0BU 9110   4.294   2.771   9.698
   148G11  C0BX 9111   4.392   2.865   9.667
   148G11  C0BT 9112   4.183   2.806   9.779
   148G11  C0CD 9113   4.174   2.935   9.826
   148G11  C0CB 9114   4.273   3.032   9.793
   148G11  C0CE 9115   4.071   2.972   9.913
   148G11  C0CK 9116   3.970   2.872   9.944
   148G11  C0BS 9117   3.973   2.751   9.884
   148G11  C0CJ 9118   3.873   2.656   9.913
   148G11  C0BP 9119   3.888   2.527   9.865
   148G11  C0CI 9120   3.781   2.432   9.870
   148G11  C0CH 9121   3.823   2.297   9.860
   148G11  H012 9122   3.750   2.228   9.900
   148G11  C0BN 9123   3.949   2.255   9.827
   148G11  C0CG 9124   3.989   2.121   9.825
   148G11  C0CF 9125   3.902   2.020   9.878
   148G11  H013 9126   3.812   2.036   9.937
   148G11  O00G 9127   3.934   1.886   9.858
   148G11  C0AA 9128   4.059   1.853   9.818
   148G11  C0A9 9129   4.094   1.718   9.815
   148G11  H00U 9130   4.025   1.637   9.832
   148G11  C0A8 9131   4.222   1.676   9.773
   148G11  H00V 9132   4.251   1.572   9.767
   148G11  C0A7 9133   4.318   1.773   9.731
   148G11  C0A6 9134   4.273   1.907   9.711
   148G11  C0A5 9135   4.344   2.006   9.642
   148G11  C0A4 9136   4.461   1.969   9.561
   148G11  C0A3 9137   4.560   1.867   9.555
   148G11  C0A2 9138   4.569   1.777   9.658
   148G11  C0A1 9139   4.677   1.679   9.664
   148G11  C0A0 9140   4.811   1.671   9.610
   148G11  C09Z 9141   4.889   1.563   9.657
   148G11  C09Y 9142   5.020   1.537   9.614
   148G11  H00Y 9143   5.067   1.443   9.642
   148G11  C09X 9144   5.080   1.632   9.529
   148G11  C09W 9145   5.216   1.608   9.495
   148G11  H00R 9146   5.251   1.511   9.526
   148G11  C0AX 9147   5.291   1.704   9.426
   148G11  H00S 9148   5.391   1.682   9.393
   148G11  C0AW 9149   5.224   1.819   9.389
   148G11  H00T 9150   5.280   1.889   9.328
   148G11  C0AN 9151   5.085   1.841   9.414
   148G11  C0AO 9152   5.021   1.953   9.369
   148G11  C0AM 9153   5.014   1.745   9.487
   148G11  C0B2 9154   4.830   1.454   9.738
   148G11  O00D 9155   4.895   1.351   9.762
   148G11  C0B1 9156   4.700   1.460   9.786
   148G11  H00W 9157   4.668   1.392   9.864
   148G11  C0AL 9158   4.874   1.767   9.521
   148G11  C0AK 9159   4.810   1.876   9.460
   148G11  C0B0 9160   4.628   1.576   9.749
   148G11  C0AZ 9161   4.488   1.596   9.782
   148G11  H00X 9162   4.427   1.532   9.845
   148G11  C0AJ 9163   4.669   1.914   9.474
   148G11  C0AH 9164   4.499   2.069   9.466
   148G11  C0AE 9165   4.304   2.142   9.641
   148G11  C0AD 9166   4.192   2.178   9.713
   148G11  C0AY 9167   4.451   1.719   9.715
   148G11  C0AB 9168   4.146   1.946   9.760
   148G11  C0AC 9169   4.110   2.084   9.767
   148G11  C0BM 9170   4.038   2.354   9.781
   148G11  C0CM 9171   3.658   2.481   9.907
   148G11  C09M 9172   3.657   2.587  10.004
   148G11  C098 9173   3.562   2.579  10.112
   148G11  C08R 9174   3.511   2.676  10.211
   148G11  C08Q 9175   3.409   2.629  10.297
   148G11  C08P 9176   3.313   2.688  10.388
   148G11  C08Y 9177   3.200   2.601  10.417
   148G11  C097 9178   3.184   2.494  10.331
   148G11  C096 9179   3.052   2.479  10.292
   148G11  C090 9180   2.979   2.543  10.395
   148G11  C095 9181   2.836   2.567  10.405
   148G11  C094 9182   2.773   2.631  10.512
   148G11  C08J 9183   2.819   2.747  10.592
   148G11  C08I 9184   2.713   2.838  10.617
   148G11  C08H 9185   2.773   2.967  10.649
   148G11  C08G 9186   2.919   2.955  10.617
   148G11  C08F 9187   3.044   3.030  10.626
   148G11  C08E 9188   3.045   3.147  10.707
   148G11  C059 9189   2.948   3.182  10.808
   148G11  C058 9190   2.972   3.286  10.900
   148G11  C057 9191   2.885   3.327  11.003
   148G11  C056 9192   2.769   3.250  11.022
   148G11  C055 9193   2.743   3.135  10.948
   148G11  C054 9194   2.603   3.122  10.940
   148G11  C053 9195   2.542   3.237  11.009
   148G11  C052 9196   2.406   3.288  11.001
   148G11  C051 9197   2.304   3.222  10.921
   148G11  C05U 9198   2.317   3.110  10.834
   148G11  C05T 9199   2.436   3.042  10.777
   148G11  C06K 9200   2.382   2.922  10.727
   148G11  H00J 9201   2.451   2.845  10.697
   148G11  C06L 9202   2.243   2.911  10.738
   148G11  H00I 9203   2.180   2.829  10.707
   148G11  C05V 9204   2.204   3.034  10.794
   148G11  C06J 9205   2.071   3.064  10.826
   148G11  H00K 9206   1.997   2.993  10.795
   148G11  C05X 9207   2.053   3.189  10.884
   148G11  C06I 9208   1.926   3.248  10.899
   148G11  H00L 9209   1.842   3.194  10.858
   148G11  C04Z 9210   1.897   3.374  10.954
   148G11  C06H 9211   1.759   3.431  10.960
   148G11  H00H 9212   1.675   3.376  10.922
   148G11  C04Y 9213   1.744   3.560  11.019
   148G11  C06G 9214   1.610   3.614  11.027
   148G11  O009 9215   1.508   3.554  10.992
   148G11  O008 9216   1.598   3.738  11.080
   148G11  C04P 9217   1.705   3.805  11.130
   148G11  C04J 9218   1.693   3.932  11.199
   148G11  C04Q 9219   1.573   4.003  11.221
   148G11  H00E 9220   1.486   3.964  11.171
   148G11  C04M 9221   1.568   4.119  11.308
   148G11  C04R 9222   1.452   4.182  11.355
   148G11  H00F 9223   1.359   4.132  11.334
   148G11  C04S 9224   1.463   4.289  11.438
   148G11  H00G 9225   1.371   4.334  11.471
   148G11  O007 9226   1.578   4.353  11.474
   148G11  C03V 9227   1.693   4.289  11.432
   148G11  C03U 9228   1.816   4.349  11.459
   148G11  O006 9229   1.810   4.460  11.534
   148G11  C03F 9230   1.920   4.545  11.536
   148G11  C03E 9231   2.049   4.488  11.511
   148G11  C03D 9232   2.061   4.360  11.460
   148G11  C03C 9233   2.185   4.303  11.440
   148G11  C03B 9234   2.294   4.380  11.475
   148G11  C03A 9235   2.423   4.326  11.463
   148G11  C039 9236   2.439   4.190  11.425
   148G11  C038 9237   2.583   4.169  11.439
   148G11  C037 9238   2.631   4.287  11.504
   148G11  C036 9239   2.765   4.313  11.515
   148G11  C02R 9240   2.826   4.429  11.543
   148G11  C035 9241   2.966   4.401  11.522
   148G11  C03R 9242   2.983   4.267  11.492
   148G11  C03S 9243   3.089   4.222  11.410
   148G11  C049 9244   3.065   4.104  11.339
   148G11  C048 9245   2.936   4.041  11.349
   148G11  C03P 9246   2.821   4.101  11.409
   148G11  C047 9247   2.937   3.913  11.299
   148G11  C046 9248   2.835   3.819  11.308
   148G11  C045 9249   2.699   3.833  11.331
   148G11  C03T 9250   2.628   3.948  11.360
   148G11  C044 9251   2.487   3.913  11.345
   148G11  C043 9252   2.482   3.776  11.319
   148G11  C042 9253   2.363   3.739  11.261
   148G11  C041 9254   2.281   3.858  11.286
   148G11  C040 9255   2.149   3.870  11.248
   148G11  C03Z 9256   2.059   3.970  11.284
   148G11  C04H 9257   1.934   3.927  11.241
   148G11  C04G 9258   1.946   3.810  11.170
   148G11  C03N 9259   2.072   4.104  11.347
   148G11  C03Y 9260   1.947   4.167  11.360
   148G11  C03X 9261   1.819   4.110  11.328
   148G11  C04F 9262   2.071   3.773  11.171
   148G11  C04E 9263   2.103   3.647  11.117
   148G11  C04O 9264   1.987   3.569  11.067
   148G11  C04D 9265   2.223   3.576  11.128
   148G11  C04V 9266   2.241   3.464  11.047
   148G11  C04W 9267   2.132   3.389  10.985
   148G11  C04C 9268   2.346   3.618  11.180
   148G11  C04L 9269   2.437   3.514  11.143
   148G11  C04U 9270   2.573   3.504  11.196
   148G11  C05Q 9271   2.667   3.426  11.139
   148G11  C05P 9272   2.795   3.480  11.156
   148G11  C04T 9273   2.786   3.602  11.224
   148G11  C04B 9274   2.650   3.613  11.246
   148G11  C03M 9275   2.359   3.974  11.339
   148G11  C04A 9276   2.610   3.734  11.295
   148G11  C05H 9277   2.882   3.700  11.250
   148G11  C05G 9278   3.016   3.712  11.211
   148G11  C05F 9279   3.076   3.628  11.119
   148G11  C05E 9280   3.203   3.652  11.052
   148G11  C05L 9281   3.300   3.761  11.044
   148G11  C05K 9282   3.287   3.886  11.118
   148G11  C05J 9283   3.179   3.931  11.203
   148G11  C066 9284   3.401   3.972  11.104
   148G11  C065 9285   3.512   3.942  11.015
   148G11  C064 9286   3.512   3.821  10.948
   148G11  C06N 9287   3.610   4.037  10.990
   148G11  C069 9288   3.603   4.170  11.046
   148G11  C06P 9289   3.694   4.265  11.009
   148G11  C06R 9290   3.684   4.398  11.052
   148G11  C06B 9291   3.580   4.432  11.142
   148G11  C06S 9292   3.572   4.563  11.182
   148G11  C02G 9293   3.468   4.593  11.263
   148G11  C02F 9294   3.442   4.730  11.289
   148G11  C027 9295   3.529   4.828  11.241
   148G11  C026 9296   3.501   4.963  11.273
   148G11  C00E 9297   3.580   5.060  11.213
   148G11  C00D 9298   3.549   5.193  11.235
   148G11  C00C 9299   3.623   5.284  11.171
   148G11  C00B 9300   3.726   5.260  11.088
   148G11  C015 9301   3.754   5.128  11.065
   148G11  C07F 9302   3.856   5.099  10.977
   148G11  C07E 9303   3.882   4.967  10.953
   148G11  C06W 9304   3.810   4.861  11.014
   148G11  C06V 9305   3.718   4.892  11.111
   148G11  C06X 9306   3.827   4.728  10.977
   148G11  C07B 9307   3.927   4.698  10.889
   148G11  C07C 9308   4.003   4.798  10.830
   148G11  C0FU 9309   4.101   4.767  10.734
   148G11  C0F7 9310   4.183   4.866  10.683
   148G11  C0F6 9311   4.287   4.831  10.599
   148G11  C0F8 9312   4.369   4.928  10.542
   148G11  C0F9 9313   4.484   4.892  10.464
   148G11  C0FA 9314   4.566   4.988  10.414
   148G11  C0FZ 9315   4.532   5.122  10.441
   148G11  C0G0 9316   4.618   5.218  10.390
   148G11  C0GD 9317   4.740   5.187  10.329
   148G11  C0FC 9318   4.772   5.054  10.314
   148G11  C0GH 9319   4.900   5.016  10.266
   148G11  C0EY 9320   4.933   4.882  10.245
   148G11  C0EX 9321   5.064   4.845  10.204
   148G11  C0EW 9322   5.091   4.710  10.197
   148G11  C0FR 9323   5.222   4.671  10.164
   148G11  H01D 9324   5.255   4.569  10.153
   148G11  C0FS 9325   5.330   4.762  10.145
   148G11  H01C 9326   5.432   4.736  10.122
   148G11  C0GJ 9327   5.296   4.895  10.146
   148G11  H01N 9328   5.374   4.967  10.126
   148G11  C0EV 9329   4.990   4.618  10.205
   148G11  C0FT 9330   5.017   4.483  10.173
   148G11  H01E 9331   5.101   4.441  10.120
   148G11  C0EU 9332   4.861   4.651  10.247
   148G11  C0ET 9333   4.762   4.557  10.275
   148G11  C0EI 9334   4.637   4.585  10.330
   148G11  C0F1 9335   4.617   4.718  10.362
   148G11  C0F0 9336   4.710   4.820  10.322
   148G11  C0EH 9337   4.544   4.484  10.358
   148G11  C0EG 9338   4.567   4.347  10.317
   148G11  C0EJ 9339   4.434   4.522  10.440
   148G11  C0F3 9340   4.417   4.658  10.475
   148G11  C0EK 9341   4.354   4.421  10.490
   148G11  C0EL 9342   4.372   4.284  10.449
   148G11  C0EM 9343   4.269   4.203  10.515
   148G11  C0EN 9344   4.175   4.252  10.600
   148G11  C07I 9345   4.089   4.155  10.649
   148G11  C074 9346   3.984   4.177  10.733
   148G11  C073 9347   3.908   4.074  10.776
   148G11  C072 9348   3.804   4.105  10.865
   148G11  C075 9349   3.977   4.306  10.769
   148G11  C076 9350   4.058   4.407  10.716
   148G11  C078 9351   4.040   4.534  10.754
   148G11  C07G 9352   3.878   4.334  10.859
   148G11  C070 9353   3.859   4.466  10.897
   148G11  C07Z 9354   4.126   4.031  10.598
   148G11  C077 9355   4.159   4.381  10.628
   148G11  C0EO 9356   4.248   4.469  10.566
   148G11  C0F4 9357   4.222   4.597  10.605
   148G11  C0EQ 9358   4.789   4.426  10.249
   148G11  C0FQ 9359   5.166   4.941  10.185
   148G11  C0GI 9360   5.130   5.071  10.203
   148G11  H01L 9361   5.207   5.145  10.187
   148G11  C0EZ 9362   4.837   4.783  10.274
   148G11  C0GG 9363   5.003   5.108  10.243
   148G11  C0GF 9364   4.971   5.246  10.269
   148G11  H01M 9365   5.042   5.326  10.255
   148G11  C0GE 9366   4.842   5.282  10.305
   148G11  H01K 9367   4.835   5.388  10.323
   148G11  O00J 9368   4.594   5.346  10.418
   148G11  C0GA 9369   4.485   5.382  10.494
   148G11  C0G9 9370   4.461   5.522  10.522
   148G11  H01H 9371   4.535   5.598  10.503
   148G11  C0G8 9372   4.352   5.563  10.594
   148G11  C0G7 9373   4.313   5.700  10.622
   148G11  H01I 9374   4.373   5.784  10.592
   148G11  O00I 9375   4.190   5.732  10.674
   148G11  C0G6 9376   4.128   5.636  10.750
   148G11  H01J 9377   4.081   5.682  10.836
   148G11  C02D 9378   4.155   5.500  10.737
   148G11  C02C 9379   4.079   5.403  10.795
   148G11  C017 9380   3.962   5.435  10.877
   148G11  C016 9381   3.895   5.333  10.946
   148G11  O001 9382   3.923   5.562  10.888
   148G11  C018 9383   3.822   5.608  10.972
   148G11  C009 9384   3.756   5.507  11.052
   148G11  C008 9385   3.655   5.527  11.150
   148G11  C007 9386   3.582   5.642  11.203
   148G11  C006 9387   3.589   5.770  11.131
   148G11  C005 9388   3.488   5.873  11.157
   148G11  C004 9389   3.377   5.867  11.250
   148G11  C003 9390   3.294   5.764  11.310
   148G11  C002 9391   3.173   5.805  11.366
   148G11  C00P 9392   3.086   5.703  11.410
   148G11  C00O 9393   2.952   5.729  11.445
   148G11  C00N 9394   2.864   5.632  11.491
   148G11  C010 9395   2.732   5.663  11.520
   148G11  C011 9396   2.642   5.562  11.561
   148G11  C01Q 9397   2.505   5.593  11.572
   148G11  C01U 9398   2.458   5.726  11.564
   148G11  C012 9399   2.558   5.828  11.543
   148G11  H000 9400   2.531   5.931  11.521
   148G11  C01V 9401   2.316   5.744  11.575
   148G11  H007 9402   2.266   5.839  11.576
   148G11  O005 9403   2.228   5.640  11.577
   148G11  C01W 9404   2.280   5.522  11.616
   148G11  C031 9405   2.191   5.422  11.657
   148G11  C032 9406   2.240   5.303  11.711
   148G11  H00A 9407   2.167   5.228  11.738
   148G11  C033 9408   2.377   5.276  11.708
   148G11  H00B 9409   2.407   5.179  11.744
   148G11  C01O 9410   2.464   5.362  11.638
   148G11  C01N 9411   2.597   5.325  11.613
   148G11  C01M 9412   2.645   5.184  11.621
   148G11  C01L 9413   2.604   5.036  11.625
   148G11  C01K 9414   2.725   4.967  11.624
   148G11  C01Y 9415   2.745   4.828  11.604
   148G11  C02I 9416   2.632   4.746  11.590
   148G11  C02N 9417   2.652   4.609  11.568
   148G11  C02M 9418   2.534   4.531  11.547
   148G11  C02L 9419   2.406   4.586  11.544
   148G11  C02K 9420   2.389   4.729  11.561
   148G11  C02U 9421   2.259   4.783  11.561
   148G11  C02V 9422   2.146   4.701  11.552
   148G11  C03H 9423   2.020   4.756  11.579
   148G11  H00C 9424   1.998   4.858  11.609
   148G11  C02W 9425   2.244   4.922  11.533
   148G11  C02X 9426   2.360   4.988  11.535
   148G11  C02Y 9427   2.325   5.114  11.469
   148G11  H008 9428   2.394   5.193  11.444
   148G11  C02Z 9429   2.180   5.118  11.446
   148G11  O004 9430   2.112   5.210  11.399
   148G11  O003 9431   2.136   5.001  11.487
   148G11  C02J 9432   2.505   4.811  11.581
   148G11  C01Z 9433   2.879   4.790  11.589
   148G11  C020 9434   2.984   4.881  11.572
   148G11  C01I 9435   2.961   5.015  11.590
   148G11  C01H 9436   3.040   5.113  11.541
   148G11  C00K 9437   3.002   5.244  11.539
   148G11  C01S 9438   2.875   5.280  11.578
   148G11  C014 9439   2.822   5.404  11.558
   148G11  C00J 9440   3.086   5.341  11.492
   148G11  C00I 9441   3.204   5.306  11.433
   148G11  C00H 9442   3.242   5.171  11.427
   148G11  C00G 9443   3.357   5.133  11.361
   148G11  C00S 9444   3.287   5.400  11.382
   148G11  C00T 9445   3.407   5.357  11.327
   148G11  C00U 9446   3.489   5.452  11.275
   148G11  C00R 9447   3.255   5.538  11.386
   148G11  C00L 9448   3.042   5.475  11.479
   148G11  C028 9449   3.161   5.076  11.477
   148G11  C023 9450   3.191   4.941  11.459
   148G11  C024 9451   3.301   4.901  11.388
   148G11  C021 9452   3.105   4.842  11.506
   148G11  C022 9453   3.129   4.707  11.475
   148G11  C02H 9454   3.245   4.667  11.413
   148G11  C030 9455   3.272   4.534  11.387
   148G11  C034 9456   3.184   4.439  11.427
   148G11  C02P 9457   3.025   4.617  11.511
   148G11  C02B 9458   2.900   4.656  11.560
   148G11  C01J 9459   2.835   5.050  11.632
   148G11  C01X 9460   2.493   4.953  11.578
   148G11  C01T 9461   2.789   5.178  11.614
   148G11  H009 9462   2.085   5.443  11.646
   148G11  C01P 9463   2.420   5.490  11.609
   148G11  C01R 9464   2.686   5.429  11.581
   148G11  C00Z 9465   2.689   5.793  11.508
   148G11  O000 9466   2.774   5.892  11.472
   148G11  C00M 9467   2.910   5.505  11.511
   148G11  C00Y 9468   2.904   5.861  11.446
   148G11  C013 9469   2.995   5.965  11.424
   148G11  H001 9470   2.951   6.062  11.436
   148G11  C00Q 9471   3.127   5.575  11.432
   148G11  C001 9472   3.131   5.938  11.383
   148G11  C000 9473   3.230   6.038  11.354
   148G11  H006 9474   3.220   6.141  11.384
   148G11  C00W 9475   3.339   5.635  11.324
   148G11  C01G 9476   3.347   6.002  11.291
   148G11  H005 9477   3.400   6.093  11.265
   148G11  C01C 9478   3.522   5.976  11.066
   148G11  H002 9479   3.469   6.070  11.060
   148G11  C01B 9480   3.646   5.941  11.005
   148G11  C01D 9481   3.720   6.020  10.909
   148G11  H003 9482   3.692   6.123  10.890
   148G11  C01E 9483   3.829   5.954  10.862
   148G11  H004 9484   3.896   6.017  10.807
   148G11  O002 9485   3.862   5.817  10.880
   148G11  C01A 9486   3.685   5.813  11.036
   148G11  C00V 9487   3.469   5.589  11.269
   148G11  C019 9488   3.789   5.744  10.970
   148G11  C02E 9489   4.107   5.272  10.766
   148G11  C0FX 9490   4.210   5.233  10.679
   148G11  C0FW 9491   4.235   5.099  10.660
   148G11  C0GB 9492   4.289   5.332  10.625
   148G11  C0G3 9493   4.030   5.170  10.828
   148G11  C07H 9494   4.057   5.036  10.802
   148G11  C0GC 9495   4.263   5.466  10.649
   148G11  C0G2 9496   4.400   5.289  10.545
   148G11  C0G1 9497   4.422   5.156  10.519
   148G11  C0FB 9498   4.683   4.955  10.349
   148G11  C0F2 9499   4.509   4.753  10.433
   148G11  C0FY 9500   4.339   5.063  10.573
   148G11  C0F5 9501   4.305   4.698  10.555
   148G11  C0FV 9502   4.160   4.999  10.719
   148G11  C079 9503   4.120   4.634  10.696
   148G11  C07A 9504   3.941   4.565  10.846
   148G11  C06Y 9505   3.748   4.628  11.036
   148G11  C07D 9506   3.980   4.937  10.862
   148G11  C01F 9507   3.928   5.199  10.921
   148G11  C00A 9508   3.789   5.367  11.032
   148G11  C00X 9509   3.601   5.417  11.206
   148G11  C00F 9510   3.440   5.228  11.312
   148G11  C029 9511   3.683   5.027  11.131
   148G11  C025 9512   3.383   4.996  11.343
   148G11  C06U 9513   3.634   4.791  11.160
   148G11  C02A 9514   3.329   4.767  11.361
   148G11  C05Y 9515   3.383   4.496  11.312
   148G11  C05Z 9516   3.391   4.364  11.273
   148G11  C060 9517   3.293   4.268  11.299
   148G11  C062 9518   3.297   4.139  11.249
   148G11  C06T 9519   3.653   4.657  11.128
   148G11  C06A 9520   3.492   4.330  11.187
   148G11  C06Z 9521   3.763   4.496  10.994
   148G11  C06Q 9522   3.791   4.236  10.911
   148G11  C068 9523   3.504   4.198  11.140
   148G11  C067 9524   3.400   4.102  11.162
   148G11  C063 9525   3.408   3.732  10.955
   148G11  C06C 9526   3.409   3.617  10.872
   148G11  C06D 9527   3.310   3.525  10.872
   148G11  C06E 9528   3.296   3.412  10.792
   148G11  C07Q 9529   3.402   3.381  10.709
   148G11  C07P 9530   3.515   3.466  10.711
   148G11  C07T 9531   3.625   3.434  10.632
   148G11  C07U 9532   3.732   3.525  10.623
   148G11  C07V 9533   3.829   3.499  10.520
   148G11  C084 9534   3.821   3.384  10.438
   148G11  C08C 9535   3.714   3.299  10.455
   148G11  C08B 9536   3.701   3.188  10.377
   148G11  C08A 9537   3.591   3.110  10.391
   148G11  C089 9538   3.489   3.129  10.474
   148G11  C088 9539   3.383   3.039  10.481
   148G11  C087 9540   3.271   3.073  10.555
   148G11  C086 9541   3.275   3.192  10.628
   148G11  C08X 9542   3.381   2.920  10.405
   148G11  C08T 9543   3.489   2.900  10.308
   148G11  C08D 9544   3.500   3.239  10.550
   148G11  C08U 9545   3.585   2.999  10.308
   148G11  C08V 9546   3.690   2.969  10.222
   148G11  C0CY 9547   3.800   3.050  10.212
   148G11  C0CX 9548   3.885   3.020  10.108
   148G11  C0CW 9549   3.987   3.113  10.086
   148G11  C0CV 9550   3.994   3.231  10.158
   148G11  C0D4 9551   3.903   3.249  10.267
   148G11  C0CU 9552   4.096   3.313  10.138
   148G11  C0CT 9553   4.185   3.299  10.029
   148G11  C0CS 9554   4.177   3.184   9.951
   148G11  C0D6 9555   4.107   3.414  10.227
   148G11  C0EC 9556   4.016   3.447  10.325
   148G11  C07X 9557   4.028   3.559  10.411
   148G11  C0DL 9558   4.219   3.499  10.215
   148G11  C0DK 9559   4.234   3.610  10.294
   148G11  C0DN 9560   4.331   3.678  10.240
   148G11  C0D8 9561   4.313   3.497  10.108
   148G11  C08W 9562   3.665   2.852  10.154
   148G11  C0CQ 9563   3.770   2.808  10.060
   148G11  C093 9564   3.801   3.160  10.293
   148G11  C092 9565   3.913   3.359  10.343
   148G11  C085 9566   3.614   3.326  10.546
   148G11  C07S 9567   3.393   3.268  10.632
   148G11  C06F 9568   3.180   3.332  10.792
   148G11  C07O 9569   3.521   3.581  10.796
   148G11  C07N 9570   3.628   3.671  10.788
   148G11  C05D 9571   3.220   3.537  10.973
   148G11  C05C 9572   3.113   3.450  10.984
   148G11  C05N 9573   3.027   3.503  11.069
   148G11  C05M 9574   3.055   3.851  11.234
   148G11  C05I 9575   3.182   4.057  11.269
   148G11  C061 9576   3.192   4.308  11.385
   148G11  C02Q 9577   3.067   4.488  11.493
   148G11  C02O 9578   2.791   4.567  11.567
   148G11  C03Q 9579   2.856   4.219  11.473
   148G11  C03O 9580   2.678   4.069  11.397
   148G11  C03L 9581   2.327   4.106  11.381
   148G11  C02S 9582   2.537   4.390  11.513
   148G11  C02T 9583   2.286   4.512  11.521
   148G11  C03K 9584   2.193   4.167  11.387
   148G11  C03I 9585   2.160   4.567  11.527
   148G11  C03G 9586   1.909   4.680  11.582
   148G11  H00D 9587   1.813   4.716  11.617
   148G11  C03J 9588   1.943   4.290  11.426
   148G11  C03W 9589   1.697   4.168  11.360
   148G11  C04I 9590   1.807   3.990  11.261
   148G11  C04K 9591   1.830   3.750  11.121
   148G11  C04N 9592   1.856   3.627  11.066
   148G11  C04X 9593   2.006   3.446  11.002
   148G11  C050 9594   2.167   3.267  10.929
   148G11  C05W 9595   2.368   3.409  11.062
   148G11  C05S 9596   2.579   3.071  10.813
   148G11  C05R 9597   2.650   3.308  11.067
   148G11  C05O 9598   2.907   3.439  11.085
   148G11  C05B 9599   3.085   3.354  10.885
   148G11  C05A 9600   2.815   3.126  10.828
   148G11  C07R 9601   3.167   3.229  10.705
   148G11  C08N 9602   3.159   2.985  10.561
   148G11  C08M 9603   3.166   2.861  10.498
   148G11  C08L 9604   3.054   2.773  10.504
   148G11  C091 9605   2.718   3.056  10.748
   148G11  C09K 9606   2.618   2.805  10.511
   148G11  H00M 9607   2.547   2.872  10.464
   148G11  C08K 9608   2.935   2.824  10.565
   148G11  C09J 9609   2.637   2.666  10.469
   148G11  C09I 9610   2.614   2.592  10.349
   148G11  C09L 9611   2.492   2.546  10.276
   148G11  H00N 9612   2.392   2.552  10.316
   148G11  C09Q 9613   2.523   2.480  10.160
   148G11  H00O 9614   2.437   2.454  10.099
   148G11  O00B 9615   2.644   2.466  10.098
   148G11  C09G 9616   2.757   2.478  10.173
   148G11  C09F 9617   2.879   2.436  10.104
   148G11  O00A 9618   2.850   2.411   9.972
   148G11  C09P 9619   2.946   2.339   9.909
   148G11  H00P 9620   2.902   2.262   9.847
   148G11  C09O 9621   3.083   2.351   9.935
   148G11  C09D 9622   3.120   2.404  10.066
   148G11  C09C 9623   3.253   2.421  10.116
   148G11  C09N 9624   3.388   2.415  10.055
   148G11  C09T 9625   3.410   2.404   9.915
   148G11  C09S 9626   3.321   2.329   9.836
   148G11  C0CP 9627   3.410   2.285   9.729
   148G11  C0CN 9628   3.542   2.336   9.735
   148G11  C0CO 9629   3.627   2.310   9.623
   148G11  H014 9630   3.728   2.347   9.620
   148G11  C0CZ 9631   3.581   2.218   9.529
   148G11  H015 9632   3.651   2.191   9.452
   148G11  C0D0 9633   3.445   2.162   9.531
   148G11  C0G5 9634   3.390   2.071   9.431
   148G11  H01F 9635   3.453   2.043   9.348
   148G11  C0G4 9636   3.259   2.036   9.432
   148G11  H01G 9637   3.220   1.976   9.351
   148G11  O00H 9638   3.171   2.076   9.529
   148G11  C0D2 9639   3.219   2.160   9.627
   148G11  C09V 9640   3.137   2.209   9.735
   148G11  H00Q 9641   3.032   2.188   9.723
   148G11  C0D1 9642   3.357   2.202   9.631
   148G11  C09R 9643   3.182   2.295   9.841
   148G11  C09H 9644   2.741   2.535  10.306
   148G11  C09E 9645   3.012   2.441  10.155
   148G11  C09B 9646   3.283   2.459  10.244
   148G11  C08Z 9647   3.071   2.651  10.434
   148G11  C08O 9648   3.285   2.820  10.428
   148G11  C09A 9649   3.415   2.491  10.272
   148G11  C08S 9650   3.540   2.809  10.207
   148G11  C099 9651   3.480   2.461  10.148
   148G11  C09U 9652   3.544   2.416   9.855
   148G11  C0BO 9653   4.011   2.488   9.809
   148G11  C0CL 9654   3.760   2.687   9.994
   148G11  C0D3 9655   3.871   2.903  10.033
   148G11  C0D5 9656   4.076   3.088   9.986
   148G11  C0BR 9657   4.085   2.711   9.819
   148G11  C0BQ 9658   4.104   2.584   9.774
   148G11  C0BL 9659   4.154   2.313   9.722
   148G11  C0AF 9660   4.372   2.241   9.568
   148G11  C0BH 9661   4.419   2.603   9.582
   148G11  C0BG 9662   4.512   2.699   9.542
   148G11  C0BD 9663   4.632   2.529   9.418
   148G11  C0AG 9664   4.469   2.207   9.480
   148G11  C0AI 9665   4.619   2.033   9.416
   148G11  C0AV 9666   4.884   1.964   9.379
   148G11  C0BB 9667   4.865   2.304   9.239
   148G11  O00C 9668   5.100   2.063   9.325
   148G11  C0BC 9669   4.976   2.382   9.203
   148G11  C0B9 9670   4.749   2.490   9.345
   148G11  O00E 9671   4.947   2.789   9.359
   148G11  C0CA 9672   4.944   2.917   9.400
   148G11  O00F 9673   5.048   2.988   9.386
   148G11  C0BF 9674   4.622   2.657   9.467
   148G11  C0C5 9675   4.822   2.959   9.464
   148G11  C0C4 9676   4.816   3.095   9.508
   148G11  H011 9677   4.892   3.170   9.497
   148G11  C0C8 9678   4.503   2.828   9.596
   148G11  C0C2 9679   4.706   3.129   9.587
   148G11  C0C3 9680   4.679   3.263   9.634
   148G11  C0DY 9681   4.745   3.383   9.598
   148G11  H016 9682   4.831   3.396   9.534
   148G11  C0DX 9683   4.680   3.490   9.672
   148G11  C0DW 9684   4.718   3.627   9.645
   148G11  C0BY 9685   4.387   2.992   9.720
   148G11  C0DB 9686   4.573   3.302   9.715
   148G11  C0CC 9687   4.272   3.158   9.858
   148G11  C0D7 9688   4.292   3.394  10.007
   148G11  C0DZ 9689   4.570   3.435   9.755
   148G11  C0DM 9690   4.389   3.614  10.126
   148G11  C0DQ 9691   4.605   3.717   9.864
   148G11  C0DV 9692   4.676   3.726   9.739
   148G11  C0E0 9693   4.801   3.692   9.547
   148G11  C0FO 9694   5.042   3.917   9.641
   148G11  C0E3 9695   4.930   3.644   9.485
   148G11  H017 9696   4.974   3.546   9.478
   148G11  C0GV 9697   5.164   3.855   9.611
   148G11  C0ES 9698   5.025   3.976   9.770
   148G11  C0GQ 9699   5.378   3.946   9.893
   148G11  C0FJ 9700   5.252   4.155  10.173
   148G11  C0ED 9701   5.006   4.101  10.035
   148G11  C0ER 9702   4.913   4.391  10.196
   148G11  C0EP 9703   4.700   4.325  10.258
   148G11  C0E6 9704   4.756   4.034  10.027
   148G11  C0DE 9705   4.500   3.926  10.148
   148G11  C0EA 9706   4.472   4.250  10.348
   148G11  C0DF 9707   4.383   3.918  10.221
   148G11  C080 9708   4.234   4.063  10.516
   148G11  C0DO 9709   4.323   3.807  10.283
   148G11  C0DJ 9710   4.135   3.645  10.393
   148G11  C07K 9711   4.038   3.922  10.628
   148G11  C07W 9712   3.932   3.589  10.503
   148G11  C083 9713   3.734   3.641  10.696
   148G11  C07J 9714   3.927   3.949  10.718
   148G11  C06O 9715   3.714   4.002  10.903
   148G11  C06M 9716   3.620   3.794  10.860
   158G11  C071 9717   3.444   5.080  11.699
   158G11  C07L 9718   3.482   5.215  11.678
   158G11  C07M 9719   3.402   5.321  11.716
   158G11  C07Y 9720   3.436   5.450  11.687
   158G11  C081 9721   3.558   5.483  11.622
   158G11  C082 9722   3.590   5.620  11.601
   158G11  C0DI 9723   3.707   5.689  11.535
   158G11  C0DH 9724   3.817   5.639  11.458
   158G11  C0DG 9725   3.908   5.743  11.420
   158G11  C0E9 9726   3.976   5.766  11.294
   158G11  C0E8 9727   3.954   5.911  11.266
   158G11  C0E7 9728   4.018   6.007  11.171
   158G11  C0EB 9729   4.114   5.950  11.071
   158G11  C0EF 9730   4.175   6.025  10.958
   158G11  C0EE 9731   4.137   6.147  10.898
   158G11  C0FD 9732   4.127   6.145  10.753
   158G11  C0FE 9733   4.118   6.029  10.671
   158G11  H01B 9734   4.112   5.933  10.720
   158G11  C0FF 9735   4.102   6.033  10.532
   158G11  H01A 9736   4.084   5.938  10.483
   158G11  C0FG 9737   4.088   6.161  10.474
   158G11  H018 9738   4.073   6.171  10.367
   158G11  C0FH 9739   4.089   6.281  10.550
   158G11  C0FI 9740   4.079   6.413  10.493
   158G11  H019 9741   4.074   6.419  10.385
   158G11  O00K 9742   4.057   6.530  10.565
   158G11  C0FL 9743   4.068   6.514  10.700
   158G11  C0FK 9744   4.106   6.391  10.765
   158G11  C0FM 9745   4.110   6.390  10.908
   158G11  C0FN 9746   4.104   6.509  10.980
   158G11  C0FP 9747   4.077   6.632  10.908
   158G11  C0GO 9748   4.037   6.745  10.973
   158G11  C0GN 9749   3.962   6.848  10.918
   158G11  C0GR 9750   3.939   6.844  10.779
   158G11  C0GS 9751   3.872   6.942  10.708
   158G11  H01Q 9752   3.860   6.941  10.601
   158G11  C0GT 9753   3.812   7.042  10.790
   158G11  H01O 9754   3.766   7.125  10.738
   158G11  C0GU 9755   3.830   7.043  10.929
   158G11  H01P 9756   3.782   7.115  10.992
   158G11  O00L 9757   4.006   6.745  10.706
   158G11  C0GM 9758   3.909   6.951  10.996
   158G11  C0GL 9759   3.925   6.945  11.138
   158G11  H01R 9760   3.879   7.018  11.203
   158G11  C0GK 9761   4.005   6.846  11.190
   158G11  C0GP 9762   4.030   6.795  11.325
   158G11  C0E2 9763   4.106   6.674  11.320
   158G11  C0E1 9764   4.041   6.591  11.418
   158G11  C0DU 9765   3.993   6.452  11.396
   158G11  C0DT 9766   4.039   6.354  11.300
   158G11  C0E4 9767   4.091   6.386  11.174
   158G11  C0E5 9768   4.081   6.264  11.112
   158G11  C0DS 9769   3.971   6.230  11.295
   158G11  C0DR 9770   3.862   6.206  11.377
   158G11  C0DD 9771   3.786   6.091  11.377
   158G11  C0DC 9772   3.681   6.130  11.467
   158G11  C0DP 9773   3.673   6.268  11.496
   158G11  C0DA 9774   3.567   6.355  11.556
   158G11  C0D9 9775   3.427   6.312  11.583
   158G11  C0CR 9776   3.325   6.411  11.598
   158G11  C0C0 9777   3.351   6.546  11.598
   158G11  C0BZ 9778   3.252   6.648  11.608
   158G11  C0C1 9779   3.293   6.782  11.607
   158G11  C0C7 9780   3.189   6.880  11.602
   158G11  C0C6 9781   3.218   7.019  11.580
   158G11  C0C9 9782   3.118   7.113  11.578
   158G11  C0B8 9783   3.149   7.250  11.556
   158G11  C0B7 9784   3.048   7.353  11.561
   158G11  C0B6 9785   3.050   7.495  11.533
   158G11  C0B5 9786   3.137   7.535  11.422
   158G11  H00Z 9787   3.223   7.484  11.381
   158G11  C0B4 9788   3.065   7.651  11.365
   158G11  H010 9789   3.089   7.691  11.267
   158G11  C0B3 9790   2.937   7.682  11.431
   158G11  C0AP 9791   2.799   7.695  11.388
   158G11  C0AQ 9792   2.733   7.602  11.469
   158G11  C0AR 9793   2.607   7.548  11.422
   158G11  C0AS 9794   2.581   7.422  11.477
   158G11  C0AT 9795   2.671   7.343  11.540
   158G11  C0BA 9796   2.800   7.385  11.566
   158G11  C0AU 9797   2.644   7.210  11.552
   158G11  C0BE 9798   2.751   7.123  11.578
   158G11  C0BI 9799   2.720   6.986  11.585
   158G11  C0BJ 9800   2.587   6.942  11.566
   158G11  C0BK 9801   2.554   6.810  11.590
   158G11  C0BW 9802   2.653   6.719  11.617
   158G11  C0BV 9803   2.789   6.762  11.627
   158G11  C0BU 9804   2.886   6.666  11.633
   158G11  C0BX 9805   3.022   6.708  11.626
   158G11  C0BT 9806   2.856   6.531  11.649
   158G11  C0CD 9807   2.957   6.440  11.665
   158G11  C0CB 9808   3.089   6.475  11.638
   158G11  C0CE 9809   2.927   6.308  11.700
   158G11  C0CK 9810   2.795   6.273  11.730
   158G11  C0BS 9811   2.694   6.366  11.706
   158G11  C0CJ 9812   2.560   6.329  11.726
   158G11  C0BP 9813   2.454   6.412  11.676
   158G11  C0CI 9814   2.327   6.364  11.653
   158G11  C0CH 9815   2.230   6.461  11.609
   158G11  H012 9816   2.131   6.420  11.593
   158G11  C0BN 9817   2.262   6.592  11.574
   158G11  C0CG 9818   2.172   6.680  11.514
   158G11  C0CF 9819   2.046   6.632  11.469
   158G11  H013 9820   2.018   6.527  11.471
   158G11  O00G 9821   1.955   6.713  11.411
   158G11  C0AA 9822   1.989   6.846  11.392
   158G11  C0A9 9823   1.894   6.921  11.324
   158G11  H00U 9824   1.799   6.877  11.297
   158G11  C0A8 9825   1.923   7.048  11.276
   158G11  H00V 9826   1.845   7.105  11.227
   158G11  C0A7 9827   2.053   7.106  11.298
   158G11  C0A6 9828   2.148   7.025  11.378
   158G11  C0A5 9829   2.268   7.072  11.426
   158G11  C0A4 9830   2.319   7.205  11.400
   158G11  C0A3 9831   2.272   7.325  11.329
   158G11  C0A2 9832   2.154   7.341  11.252
   158G11  C0A1 9833   2.144   7.445  11.149
   158G11  C0A0 9834   2.222   7.565  11.108
   158G11  C09Z 9835   2.164   7.638  10.998
   158G11  C09Y 9836   2.224   7.754  10.947
   158G11  H00Y 9837   2.179   7.803  10.862
   158G11  C09X 9838   2.346   7.805  11.010
   158G11  C09W 9839   2.393   7.930  10.965
   158G11  H00R 9840   2.335   7.990  10.895
   158G11  C0AX 9841   2.507   7.990  11.019
   158G11  H00S 9842   2.541   8.090  10.996
   158G11  C0AW 9843   2.581   7.906  11.104
   158G11  H00T 9844   2.675   7.946  11.140
   158G11  C0AN 9845   2.528   7.784  11.162
   158G11  C0AO 9846   2.603   7.716  11.254
   158G11  C0AM 9847   2.408   7.729  11.111
   158G11  C0B2 9848   2.049   7.598  10.924
   158G11  O00D 9849   1.997   7.662  10.831
   158G11  C0B1 9850   1.979   7.470  10.958
   158G11  H00W 9851   1.893   7.433  10.905
   158G11  C0AL 9852   2.348   7.613  11.165
   158G11  C0AK 9853   2.415   7.554  11.271
   158G11  C0B0 9854   2.035   7.400  11.071
   158G11  C0AZ 9855   1.984   7.272  11.114
   158G11  H00X 9856   1.916   7.219  11.048
   158G11  C0AJ 9857   2.371   7.427  11.339
   158G11  C0AH 9858   2.425   7.247  11.476
   158G11  C0AE 9859   2.357   6.986  11.490
   158G11  C0AD 9860   2.327   6.857  11.515
   158G11  C0AY 9861   2.061   7.233  11.228
   158G11  C0AB 9862   2.113   6.894  11.416
   158G11  C0AC 9863   2.203   6.813  11.486
   158G11  C0BM 9864   2.391   6.634  11.591
   158G11  C0CM 9865   2.301   6.227  11.674
   158G11  C09M 9866   2.386   6.151  11.763
   158G11  C098 9867   2.322   6.042  11.832
   158G11  C08R 9868   2.376   5.926  11.903
   158G11  C08Q 9869   2.278   5.837  11.955
   158G11  C08P 9870   2.264   5.693  11.986
   158G11  C08Y 9871   2.132   5.641  11.987
   158G11  C097 9872   2.024   5.714  11.935
   158G11  C096 9873   1.941   5.634  11.857
   158G11  C090 9874   1.960   5.504  11.906
   158G11  C095 9875   1.908   5.382  11.857
   158G11  C094 9876   1.924   5.251  11.920
   158G11  C08J 9877   2.032   5.214  12.000
   158G11  C08I 9878   2.063   5.079  11.961
   158G11  C08H 9879   2.200   5.048  11.986
   158G11  C08G 9880   2.271   5.175  12.010
   158G11  C08F 9881   2.404   5.218  12.053
   158G11  C08E 9882   2.508   5.121  12.064
   158G11  C059 9883   2.486   4.985  12.098
   158G11  C058 9884   2.591   4.885  12.101
   158G11  C057 9885   2.577   4.746  12.118
   158G11  C056 9886   2.444   4.698  12.146
   158G11  C055 9887   2.344   4.785  12.167
   158G11  C054 9888   2.226   4.709  12.144
   158G11  C053 9889   2.256   4.579  12.094
   158G11  C052 9890   2.174   4.486  12.028
   158G11  C051 9891   2.036   4.520  11.987
   158G11  C05U 9892   1.963   4.650  11.992
   158G11  C05T 9893   2.009   4.776  12.034
   158G11  C06K 9894   1.894   4.836  12.099
   158G11  H00J 9895   1.919   4.920  12.162
   158G11  C06L 9896   1.780   4.759  12.070
   158G11  H00I 9897   1.679   4.782  12.101
   158G11  C05V 9898   1.820   4.648  11.990
   158G11  C06J 9899   1.741   4.543  11.949
   158G11  H00K 9900   1.633   4.542  11.953
   158G11  C05X 9901   1.813   4.434  11.892
   158G11  C06I 9902   1.751   4.335  11.814
   158G11  H00L 9903   1.648   4.350  11.785
   158G11  C04Z 9904   1.810   4.217  11.773
   158G11  C06H 9905   1.731   4.118  11.703
   158G11  H00H 9906   1.628   4.131  11.675
   158G11  C04Y 9907   1.805   3.999  11.655
   158G11  C06G 9908   1.735   3.902  11.580
   158G11  O009 9909   1.616   3.908  11.551
   158G11  O008 9910   1.799   3.793  11.541
   158G11  C04P 9911   1.935   3.771  11.560
   158G11  C04J 9912   2.012   3.658  11.519
   158G11  C04Q 9913   1.967   3.544  11.453
   158G11  H00E 9914   1.866   3.544  11.417
   158G11  C04M 9915   2.045   3.429  11.420
   158G11  C04R 9916   2.000   3.321  11.336
   158G11  H00F 9917   1.903   3.319  11.289
   158G11  C04S 9918   2.091   3.232  11.290
   158G11  H00G 9919   2.075   3.168  11.205
   158G11  O007 9920   2.218   3.214  11.353
   158G11  C03V 9921   2.266   3.330  11.418
   158G11  C03U 9922   2.400   3.339  11.447
   158G11  O006 9923   2.469   3.231  11.415
   158G11  C03F 9924   2.600   3.234  11.415
   158G11  C03E 9925   2.669   3.347  11.470
   158G11  C03D 9926   2.593   3.454  11.525
   158G11  C03C 9927   2.653   3.562  11.586
   158G11  C03B 9928   2.790   3.565  11.582
   158G11  C03A 9929   2.853   3.681  11.619
   158G11  C039 9930   2.790   3.794  11.681
   158G11  C038 9931   2.895   3.888  11.712
   158G11  C037 9932   3.015   3.825  11.665
   158G11  C036 9933   3.132   3.873  11.695
   158G11  C02R 9934   3.252   3.835  11.642
   158G11  C035 9935   3.339   3.943  11.680
   158G11  C03R 9936   3.274   4.041  11.757
   158G11  C03S 9937   3.308   4.176  11.751
   158G11  C049 9938   3.215   4.266  11.789
   158G11  C048 9939   3.084   4.218  11.811
   158G11  C03P 9940   3.038   4.083  11.789
   158G11  C047 9941   2.995   4.316  11.860
   158G11  C046 9942   2.865   4.299  11.903
   158G11  C045 9943   2.777   4.187  11.896
   158G11  C03T 9944   2.789   4.063  11.835
   158G11  C044 9945   2.658   3.999  11.846
   158G11  C043 9946   2.581   4.075  11.932
   158G11  C042 9947   2.447   4.066  11.878
   158G11  C041 9948   2.454   3.948  11.791
   158G11  C040 9949   2.347   3.884  11.733
   158G11  C03Z 9950   2.343   3.762  11.660
   158G11  C04H 9951   2.209   3.746  11.621
   158G11  C04G 9952   2.135   3.852  11.666
   158G11  C03N 9953   2.436   3.660  11.614
   158G11  C03Y 9954   2.374   3.550  11.550
   158G11  C03X 9955   2.236   3.542  11.525
   158G11  C04F 9956   2.212   3.939  11.737
   158G11  C04E 9957   2.149   4.059  11.788
   158G11  C04O 9958   2.010   4.078  11.761
   158G11  C04D 9959   2.213   4.160  11.863
   158G11  C04V 9960   2.146   4.275  11.904
   158G11  C04W 9961   2.011   4.299  11.880
   158G11  C04C 9962   2.345   4.165  11.909
   158G11  C04L 9963   2.353   4.283  11.995
   158G11  C04U 9964   2.482   4.347  12.048
   158G11  C05Q 9965   2.491   4.475  12.088
   158G11  C05P 9966   2.625   4.517  12.073
   158G11  C04T 9967   2.694   4.416  12.014
   158G11  C04B 9968   2.610   4.309  12.008
   158G11  C03M 9969   2.589   3.898  11.766
   158G11  C04A 9970   2.651   4.191  11.952
   158G11  C05H 9971   2.827   4.415  11.969
   158G11  C05G 9972   2.930   4.513  11.955
   158G11  C05F 9973   2.931   4.642  12.013
   158G11  C05E 9974   3.015   4.746  11.969
   158G11  C05L 9975   3.138   4.760  11.889
   158G11  C05K 9976   3.212   4.644  11.839
   158G11  C05J 9977   3.174   4.502  11.844
   158G11  C066 9978   3.331   4.675  11.771
   158G11  C065 9979   3.367   4.809  11.746
   158G11  C064 9980   3.288   4.915  11.793
   158G11  C06N 9981   3.487   4.838  11.674
   158G11  C069 9982   3.568   4.736  11.622
   158G11  C06P 9983   3.683   4.771  11.549
   158G11  C06R 9984   3.760   4.670  11.485
   158G11  C06B 9985   3.722   4.538  11.508
   158G11  C06S 9986   3.797   4.439  11.451
   158G11  C02G 9987   3.761   4.306  11.461
   158G11  C02F 9988   3.822   4.209  11.382
   158G11  C027 9989   3.924   4.238  11.296
   158G11  C026 9990   3.980   4.143  11.213
   158G11  C00E 9991   4.082   4.175  11.124
   158G11  C00D 9992   4.142   4.078  11.055
   158G11  C00C 9993   4.247   4.115  10.974
   158G11  C00B 9994   4.297   4.237  10.957
   158G11  C015 9995   4.227   4.336  11.024
   158G11  C07F 9996   4.267   4.467  11.007
   158G11  C07E 9997   4.202   4.566  11.082
   158G11  C06W 9998   4.104   4.532  11.175
   158G11  C06V 9999   4.071   4.401  11.197
   158G11  C06X10000   4.038   4.636  11.243
   158G11  C07B10001   4.069   4.769  11.223
   158G11  C07C10002   4.176   4.799  11.140
   158G11  C0FU10003   4.214   4.933  11.126
   158G11  C0F710004   4.312   4.968  11.040
   158G11  C0F610005   4.349   5.105  11.018
   158G11  C0F810006   4.450   5.136  10.925
   158G11  C0F910007   4.477   5.270  10.898
   158G11  C0FA10008   4.588   5.305  10.825
   158G11  C0FZ10009   4.664   5.204  10.771
   158G11  C0G010010   4.778   5.235  10.698
   158G11  C0GD10011   4.816   5.367  10.671
   158G11  C0FC10012   4.740   5.465  10.723
   158G11  C0GH10013   4.767   5.599  10.692
   158G11  C0EY10014   4.680   5.701  10.733
   158G11  C0EX10015   4.704   5.837  10.700
   158G11  C0EW10016   4.611   5.935  10.735
   158G11  C0FR10017   4.640   6.070  10.702
   158G11  H01D10018   4.573   6.149  10.733
   158G11  C0FS10019   4.751   6.106  10.630
   158G11  H01C10020   4.772   6.204  10.589
   158G11  C0GJ10021   4.840   6.005  10.593
   158G11  H01N10022   4.922   6.022  10.525
   158G11  C0EV10023   4.503   5.901  10.814
   158G11  C0FT10024   4.399   5.997  10.840
   158G11  H01E10025   4.391   6.100  10.810
   158G11  C0EU10026   4.489   5.771  10.863
   158G11  C0ET10027   4.380   5.729  10.942
   158G11  C0EI10028   4.349   5.600  10.982
   158G11  C0F110029   4.429   5.504  10.928
   158G11  C0F010030   4.542   5.538  10.851
   158G11  C0EH10031   4.237   5.579  11.073
   158G11  C0EG10032   4.155   5.686  11.124
   158G11  C0EJ10033   4.220   5.447  11.110
   158G11  C0F310034   4.296   5.338  11.049
   158G11  C0EK10035   4.129   5.411  11.209
   158G11  C0EL10036   4.040   5.513  11.262
   158G11  C0EM10037   3.944   5.454  11.355
   158G11  C0EN10038   3.939   5.319  11.384
   158G11  C07I10039   3.833   5.289  11.461
   158G11  C07410040   3.799   5.159  11.494
   158G11  C07310041   3.683   5.136  11.570
   158G11  C07210042   3.646   5.005  11.589
   158G11  C07510043   3.867   5.059  11.432
   158G11  C07610044   3.977   5.091  11.348
   158G11  C07810045   4.048   4.998  11.283
   158G11  C07G10046   3.833   4.929  11.456
   158G11  C07010047   3.906   4.834  11.391
   158G11  C07Z10048   3.758   5.402  11.499
   158G11  C07710049   4.015   5.224  11.321
   158G11  C0EO10050   4.108   5.275  11.237
   158G11  C0F410051   4.176   5.173  11.171
   158G11  C0EQ10052   4.282   5.832  10.971
   158G11  C0FQ10053   4.819   5.871  10.621
   158G11  C0GI10054   4.897   5.767  10.580
   158G11  H01L10055   4.981   5.785  10.515
   158G11  C0EZ10056   4.571   5.670  10.818
   158G11  C0GG10057   4.878   5.634  10.611
   158G11  C0GF10058   4.961   5.527  10.571
   158G11  H01M10059   5.049   5.544  10.511
   158G11  C0GE10060   4.939   5.404  10.609
   158G11  H01K10061   5.005   5.324  10.578
   158G11  O00J10062   4.861   5.133  10.649
   158G11  C0GA10063   4.830   5.001  10.666
   158G11  C0G910064   4.917   4.904  10.614
   158G11  H01H10065   5.004   4.932  10.557
   158G11  C0G810066   4.884   4.769  10.621
   158G11  C0G710067   4.960   4.664  10.564
   158G11  H01I10068   5.053   4.684  10.512
   158G11  O00I10069   4.925   4.529  10.580
   158G11  C0G610070   4.808   4.501  10.644
   158G11  H01J10071   4.777   4.398  10.632
   158G11  C02D10072   4.724   4.601  10.700
   158G11  C02C10073   4.604   4.564  10.772
   158G11  C01710074   4.556   4.427  10.779
   158G11  C01610075   4.445   4.394  10.864
   158G11  O00110076   4.612   4.316  10.708
   158G11  C01810077   4.572   4.186  10.717
   158G11  C00910078   4.466   4.155  10.804
   158G11  C00810079   4.406   4.021  10.811
   158G11  C00710080   4.421   3.891  10.748
   158G11  C00610081   4.515   3.857  10.648
   158G11  C00510082   4.517   3.736  10.581
   158G11  C00410083   4.424   3.616  10.596
   158G11  C00310084   4.307   3.585  10.681
   158G11  C00210085   4.239   3.460  10.674
   158G11  C00P10086   4.127   3.430  10.754
   158G11  C00O10087   4.056   3.310  10.739
   158G11  C00N10088   3.938   3.283  10.817
   158G11  C01010089   3.864   3.168  10.794
   158G11  C01110090   3.735   3.152  10.850
   158G11  C01Q10091   3.653   3.047  10.813
   158G11  C01U10092   3.688   2.962  10.705
   158G11  C01210093   3.811   2.990  10.633
   158G11  H00010094   3.839   2.928  10.549
   158G11  C01V10095   3.597   2.855  10.671
   158G11  H00710096   3.617   2.796  10.583
   158G11  O00510097   3.480   2.831  10.733
   158G11  C01W10098   3.440   2.927  10.824
   158G11  C03110099   3.310   2.916  10.874
   158G11  C03210100   3.260   3.013  10.960
   158G11  H00A10101   3.161   2.998  11.003
   158G11  C03310102   3.342   3.121  10.996
   158G11  H00B10103   3.288   3.195  11.053
   158G11  C01O10104   3.479   3.131  10.962
   158G11  C01N10105   3.564   3.225  11.012
   158G11  C01M10106   3.522   3.319  11.121
   158G11  C01L10107   3.413   3.351  11.231
   158G11  C01K10108   3.457   3.476  11.281
   158G11  C01Y10109   3.396   3.564  11.372
   158G11  C02I10110   3.267   3.533  11.411
   158G11  C02N10111   3.209   3.626  11.500
   158G11  C02M10112   3.077   3.602  11.535
   158G11  C02L10113   3.006   3.487  11.492
   158G11  C02K10114   3.073   3.387  11.417
   158G11  C02U10115   3.008   3.265  11.400
   158G11  C02V10116   2.879   3.247  11.414
   158G11  C03H10117   2.812   3.138  11.355
   158G11  H00C10118   2.868   3.059  11.308
   158G11  C02W10119   3.092   3.158  11.355
   158G11  C02X10120   3.212   3.189  11.295
   158G11  C02Y10121   3.267   3.058  11.275
   158G11  H00810122   3.360   3.023  11.233
   158G11  C02Z10123   3.173   2.955  11.325
   158G11  O00410124   3.173   2.835  11.303
   158G11  O00310125   3.068   3.019  11.365
   158G11  C02J10126   3.210   3.404  11.370
   158G11  C01Z10127   3.471   3.679  11.404
   158G11  C02010128   3.594   3.706  11.342
   158G11  C01I10129   3.653   3.617  11.255
   158G11  C01H10130   3.763   3.643  11.183
   158G11  C00K10131   3.805   3.559  11.084
   158G11  C01S10132   3.736   3.445  11.060
   158G11  C01410133   3.779   3.342  10.977
   158G11  C00J10134   3.923   3.581  11.015
   158G11  C00I10135   3.988   3.696  11.036
   158G11  C00H10136   3.938   3.788  11.126
   158G11  C00G10137   3.992   3.912  11.144
   158G11  C00S10138   4.102   3.724  10.957
   158G11  C00T10139   4.152   3.850  10.979
   158G11  C00U10140   4.258   3.883  10.900
   158G11  C00R10141   4.152   3.641  10.857
   158G11  C00L10142   3.967   3.490  10.922
   158G11  C02810143   3.826   3.763  11.205
   158G11  C02310144   3.778   3.857  11.292
   158G11  C02410145   3.828   3.986  11.298
   158G11  C02110146   3.661   3.826  11.366
   158G11  C02210147   3.610   3.919  11.453
   158G11  C02H10148   3.661   4.045  11.461
   158G11  C03010149   3.603   4.140  11.541
   158G11  C03410150   3.494   4.109  11.617
   158G11  C02P10151   3.492   3.883  11.518
   158G11  C02B10152   3.418   3.763  11.497
   158G11  C01J10153   3.576   3.509  11.226
   158G11  C01X10154   3.281   3.312  11.284
   158G11  C01T10155   3.622   3.419  11.136
   158G11  H00910156   3.247   2.832  10.849
   158G11  C01P10157   3.526   3.036  10.866
   158G11  C01R10158   3.693   3.238  10.955
   158G11  C00Z10159   3.906   3.087  10.684
   158G11  O00010160   4.014   3.109  10.609
   158G11  C00M10161   3.901   3.369  10.912
   158G11  C00Y10162   4.093   3.218  10.643
   158G11  C01310163   4.204   3.245  10.569
   158G11  H00110164   4.218   3.174  10.488
   158G11  C00Q10165   4.083   3.522  10.845
   158G11  C00110166   4.283   3.359  10.583
   158G11  C00010167   4.398   3.386  10.508
   158G11  H00610168   4.450   3.319  10.442
   158G11  C00W10169   4.258   3.674  10.775
   158G11  C01G10170   4.465   3.508  10.511
   158G11  H00510171   4.542   3.521  10.436
   158G11  C01C10172   4.636   3.746  10.500
   158G11  H00210173   4.688   3.680  10.432
   158G11  C01B10174   4.689   3.879  10.515
   158G11  C01D10175   4.803   3.939  10.452
   158G11  H00310176   4.876   3.881  10.398
   158G11  C01E10177   4.827   4.065  10.492
   158G11  H00410178   4.919   4.105  10.450
   158G11  O00210179   4.749   4.146  10.566
   158G11  C01A10180   4.610   3.954  10.606
   158G11  C00V10181   4.313   3.806  10.797
   158G11  C01910182   4.638   4.092  10.628
   158G11  C02E10183   4.533   4.665  10.839
   158G11  C0FX10184   4.568   4.799  10.828
   158G11  C0FW10185   4.490   4.899  10.889
   158G11  C0GB10186   4.686   4.834  10.755
   158G11  C0G310187   4.421   4.632  10.914
   158G11  C07H10188   4.349   4.732  10.987
   158G11  C0GC10189   4.764   4.736  10.690
   158G11  C0G210190   4.713   4.968  10.743
   158G11  C0G110191   4.635   5.067  10.796
   158G11  C0FB10192   4.628   5.435  10.803
   158G11  C0F210193   4.397   5.371  10.955
   158G11  C0FY10194   4.521   5.034  10.866
   158G11  C0F510195   4.274   5.204  11.083
   158G11  C0FV10196   4.385   4.869  10.974
   158G11  C07910197   4.144   5.033  11.194
   158G11  C07A10198   4.005   4.868  11.298
   158G11  C06Y10199   3.931   4.608  11.328
   158G11  C07D10200   4.242   4.699  11.071
   158G11  C01F10201   4.377   4.498  10.921
   158G11  C00A10202   4.405   4.258  10.877
   158G11  C00X10203   4.305   4.009  10.899
   158G11  C00F10204   4.097   3.948  11.059
   158G11  C02910205   4.132   4.304  11.119
   158G11  C02510206   3.937   4.013  11.222
   158G11  C06U10207   3.965   4.370  11.285
   158G11  C02A10208   3.769   4.080  11.381
   158G11  C05Y10209   3.652   4.270  11.540
   158G11  C05Z10210   3.571   4.372  11.600
   158G11  C06010211   3.461   4.343  11.671
   158G11  C06210212   3.374   4.439  11.730
   158G11  C06T10213   3.898   4.475  11.353
   158G11  C06A10214   3.605   4.508  11.579
   158G11  C06Z10215   3.867   4.703  11.404
   158G11  C06Q10216   3.726   4.903  11.537
   158G11  C06810217   3.529   4.605  11.643
   158G11  C06710218   3.412   4.572  11.717
   158G11  C06310219   3.177   4.894  11.868
   158G11  C06C10220   3.086   5.005  11.894
   158G11  C06D10221   2.969   4.990  11.963
   158G11  C06E10222   2.869   5.087  11.981
   158G11  C07Q10223   2.898   5.216  11.942
   158G11  C07P10224   3.025   5.238  11.892
   158G11  C07T10225   3.059   5.366  11.858
   158G11  C07U10226   3.185   5.392  11.802
   158G11  C07V10227   3.218   5.520  11.771
   158G11  C08410228   3.127   5.622  11.794
   158G11  C08C10229   2.998   5.593  11.844
   158G11  C08B10230   2.905   5.694  11.854
   158G11  C08A10231   2.782   5.662  11.902
   158G11  C08910232   2.739   5.539  11.933
   158G11  C08810233   2.608   5.513  11.965
   158G11  C08710234   2.572   5.383  12.004
   158G11  C08610235   2.674   5.288  12.002
   158G11  C08X10236   2.506   5.616  11.967
   158G11  C08T10237   2.558   5.754  11.934
   158G11  C08D10238   2.832   5.440  11.916
   158G11  C08U10239   2.691   5.766  11.900
   158G11  C08V10240   2.725   5.896  11.868
   158G11  C0CY10241   2.850   5.931  11.828
   158G11  C0CX10242   2.876   6.060  11.793
   158G11  C0CW10243   3.002   6.087  11.756
   158G11  C0CV10244   3.092   5.988  11.750
   158G11  C0D410245   3.066   5.854  11.784
   158G11  C0CU10246   3.215   6.022  11.700
   158G11  C0CT10247   3.258   6.152  11.664
   158G11  C0CS10248   3.158   6.251  11.668
   158G11  C0D610249   3.308   5.918  11.702
   158G11  C0EC10250   3.287   5.788  11.728
   158G11  C07X10251   3.379   5.686  11.707
   158G11  C0DL10252   3.432   5.946  11.647
   158G11  C0DK10253   3.526   5.846  11.622
   158G11  C0DN10254   3.626   5.908  11.559
   158G11  C0D810255   3.470   6.071  11.596
   158G11  C08W10256   2.615   5.977  11.860
   158G11  C0CQ10257   2.635   6.113  11.816
   158G11  C09310258   2.943   5.827  11.826
   158G11  C09210259   3.161   5.755  11.774
   158G11  C08510260   2.966   5.468  11.871
   158G11  C07S10261   2.802   5.316  11.953
   158G11  C06F10262   2.738   5.065  12.027
   158G11  C07O10263   3.123   5.134  11.867
   158G11  C07N10264   3.244   5.157  11.804
   158G11  C05D10265   2.945   4.864  12.009
   158G11  C05C10266   2.820   4.835  12.054
   158G11  C05N10267   2.808   4.701  12.066
   158G11  C05M10268   3.041   4.454  11.886
   158G11  C05I10269   3.251   4.400  11.789
   158G11  C06110270   3.425   4.211  11.686
   158G11  C02Q10271   3.448   3.980  11.605
   158G11  C02O10272   3.288   3.737  11.544
   158G11  C03Q10273   3.145   4.000  11.751
   158G11  C03O10274   2.903   4.023  11.770
   158G11  C03L10275   2.646   3.794  11.690
   158G11  C02S10276   2.994   3.699  11.611
   158G11  C02T10277   2.868   3.468  11.519
   158G11  C03K10278   2.579   3.675  11.634
   158G11  C03I10279   2.809   3.354  11.467
   158G11  C03G10280   2.671   3.127  11.360
   158G11  H00D10281   2.620   3.040  11.320
   158G11  C03J10282   2.455   3.452  11.506
   158G11  C03W10283   2.182   3.431  11.460
   158G11  C04I10284   2.147   3.646  11.550
   158G11  C04K10285   2.002   3.866  11.634
   158G11  C04N10286   1.939   3.979  11.683
   158G11  C04X10287   1.945   4.199  11.807
   158G11  C05010288   1.953   4.421  11.923
   158G11  C05W10289   2.227   4.358  11.983
   158G11  C05S10290   2.144   4.807  12.080
   158G11  C05R10291   2.393   4.572  12.119
   158G11  C05O10292   2.676   4.649  12.089
   158G11  C05B10293   2.714   4.932  12.061
   158G11  C05A10294   2.358   4.918  12.114
   158G11  C07R10295   2.638   5.160  12.039
   158G11  C08N10296   2.435   5.356  12.026
   158G11  C08M10297   2.334   5.454  12.006
   158G11  C08L10298   2.195   5.410  11.999
   158G11  C09110299   2.227   4.932  12.065
   158G11  C09K10300   1.992   5.043  11.838
   158G11  H00M10301   2.022   4.976  11.760
   158G11  C08K10302   2.166   5.273  12.007
   158G11  C09J10303   1.892   5.145  11.823
   158G11  C09I10304   1.851   5.217  11.709
   158G11  C09L10305   1.808   5.161  11.583
   158G11  H00N10306   1.813   5.055  11.560
   158G11  C09Q10307   1.768   5.259  11.497
   158G11  H00O10308   1.742   5.218  11.400
   158G11  O00B10309   1.762   5.399  11.513
   158G11  C09G10310   1.819   5.446  11.630
   158G11  C09F10311   1.826   5.589  11.625
   158G11  O00A10312   1.781   5.638  11.505
   158G11  C09P10313   1.747   5.770  11.511
   158G11  H00P10314   1.649   5.807  11.485
   158G11  C09O10315   1.850   5.859  11.562
   158G11  C09D10316   1.912   5.813  11.684
   158G11  C09C10317   2.000   5.892  11.766
   158G11  C09N10318   2.081   6.010  11.755
   158G11  C09T10319   2.088   6.075  11.627
   158G11  C09S10320   1.995   6.062  11.521
   158G11  C0CP10321   2.040   6.150  11.431
   158G11  C0CN10322   2.157   6.214  11.462
   158G11  C0CO10323   2.221   6.293  11.368
   158G11  H01410324   2.321   6.333  11.382
   158G11  C0CZ10325   2.154   6.314  11.246
   158G11  H01510326   2.206   6.372  11.172
   158G11  C0D010327   2.027   6.259  11.211
   158G11  C0G510328   1.953   6.278  11.090
   158G11  H01F10329   2.001   6.339  11.015
   158G11  C0G410330   1.839   6.211  11.075
   158G11  H01G10331   1.796   6.215  10.976
   158G11  O00H10332   1.779   6.127  11.162
   158G11  C0D210333   1.846   6.105  11.281
   158G11  C09V10334   1.802   6.013  11.376
   158G11  H00Q10335   1.710   5.960  11.359
   158G11  C0D110336   1.971   6.173  11.309
   158G11  C09R10337   1.880   5.978  11.491
   158G11  C09H10338   1.851   5.359  11.733
   158G11  C09E10339   1.886   5.675  11.724
   158G11  C09B10340   2.049   5.842  11.892
   158G11  C08Z10341   2.094   5.511  11.961
   158G11  C08O10342   2.368   5.595  11.985
   158G11  C09A10343   2.160   5.917  11.945
   158G11  C08S10344   2.513   5.888  11.902
   158G11  C09910345   2.183   6.026  11.857
   158G11  C09U10346   2.186   6.182  11.601
   158G11  C0BO10347   2.490   6.542  11.635
   158G11  C0CL10348   2.528   6.198  11.776
   158G11  C0D310349   2.772   6.146  11.776
   158G11  C0D510350   3.029   6.213  11.708
   158G11  C0BR10351   2.725   6.493  11.667
   158G11  C0BQ10352   2.624   6.583  11.639
   158G11  C0BL10353   2.425   6.768  11.570
   158G11  C0AF10354   2.484   7.030  11.531
   158G11  C0BH10355   2.826   6.897  11.605
   158G11  C0BG10356   2.958   6.935  11.602
   158G11  C0BD10357   2.885   7.168  11.578
   158G11  C0AG10358   2.520   7.163  11.525
   158G11  C0AI10359   2.460   7.372  11.437
   158G11  C0AV10360   2.541   7.606  11.319
   158G11  C0BB10361   2.823   7.527  11.554
   158G11  O00C10362   2.728   7.764  11.289
   158G11  C0BC10363   2.944   7.589  11.547
   158G11  C0B910364   2.912   7.305  11.575
   158G11  O00E10365   3.281   7.278  11.534
   158G11  C0CA10366   3.383   7.191  11.540
   158G11  O00F10367   3.494   7.233  11.512
   158G11  C0BF10368   2.987   7.075  11.587
   158G11  C0C510369   3.352   7.056  11.564
   158G11  C0C410370   3.458   6.959  11.571
   158G11  H01110371   3.559   6.994  11.560
   158G11  C0C810372   3.058   6.840  11.615
   158G11  C0C210373   3.421   6.822  11.594
   158G11  C0C310374   3.515   6.718  11.590
   158G11  C0DY10375   3.651   6.722  11.576
   158G11  H01610376   3.721   6.804  11.580
   158G11  C0DX10377   3.704   6.587  11.569
   158G11  C0DW10378   3.827   6.564  11.513
   158G11  C0BY10379   3.121   6.610  11.621
   158G11  C0DB10380   3.484   6.584  11.596
   158G11  C0CC10381   3.191   6.379  11.631
   158G11  C0D710382   3.382   6.182  11.610
   158G11  C0DZ10383   3.592   6.496  11.583
   158G11  C0DM10384   3.596   6.044  11.537
   158G11  C0DQ10385   3.802   6.313  11.449
   158G11  C0DV10386   3.864   6.438  11.453
   158G11  C0E010387   3.938   6.660  11.488
   158G11  C0FO10388   4.114   6.641  11.184
   158G11  C0E310389   3.934   6.794  11.429
   158G11  H01710390   3.849   6.861  11.421
   158G11  C0GV10391   4.065   6.749  11.113
   158G11  C0ES10392   4.114   6.513  11.118
   158G11  C0GQ10393   4.045   6.630  10.771
   158G11  C0FJ10394   4.114   6.275  10.689
   158G11  C0ED10395   4.113   6.264  10.972
   158G11  C0ER10396   4.295   5.959  10.917
   158G11  C0EP10397   4.186   5.817  11.064
   158G11  C0E610398   4.023   6.153  11.189
   158G11  C0DE10399   3.856   5.965  11.364
   158G11  C0EA10400   4.059   5.655  11.227
   158G11  C0DF10401   3.841   5.867  11.454
   158G11  C08010402   3.833   5.505  11.438
   158G11  C0DO10403   3.726   5.825  11.521
   158G11  C0DJ10404   3.501   5.712  11.649
   158G11  C07K10405   3.639   5.377  11.588
   158G11  C07W10406   3.345   5.553  11.723
   158G11  C08310407   3.275   5.289  11.771
   158G11  C07J10408   3.601   5.245  11.611
   158G11  C06O10409   3.523   4.975  11.653
   158G11  C06M10410   3.326   5.050  11.765
   168G11  C07110411   2.956   2.962   9.584
   168G11  C07L10412   3.016   2.881   9.485
   168G11  C07M10413   2.954   2.786   9.411
   168G11  C07Y10414   3.017   2.720   9.305
   168G11  C08110415   3.152   2.740   9.275
   168G11  C08210416   3.214   2.662   9.171
   168G11  C0DI10417   3.357   2.652   9.130
   168G11  C0DH10418   3.470   2.730   9.163
   168G11  C0DG10419   3.590   2.685   9.096
   168G11  C0E910420   3.689   2.762   9.021
   168G11  C0E810421   3.715   2.676   8.905
   168G11  C0E710422   3.831   2.675   8.821
   168G11  C0EB10423   3.952   2.747   8.855
   168G11  C0EF10424   4.086   2.730   8.805
   168G11  C0EE10425   4.148   2.613   8.779
   168G11  C0FD10426   4.265   2.574   8.846
   168G11  C0FE10427   4.323   2.641   8.959
   168G11  H01B10428   4.276   2.733   8.988
   168G11  C0FF10429   4.439   2.594   9.024
   168G11  H01A10430   4.487   2.651   9.103
   168G11  C0FG10431   4.493   2.474   8.982
   168G11  H01810432   4.589   2.434   9.013
   168G11  C0FH10433   4.434   2.400   8.871
   168G11  C0FI10434   4.491   2.275   8.821
   168G11  H01910435   4.575   2.225   8.868
   168G11  O00K10436   4.439   2.209   8.713
   168G11  C0FL10437   4.340   2.272   8.643
   168G11  C0FK10438   4.278   2.387   8.690
   168G11  C0FM10439   4.168   2.442   8.615
   168G11  C0FN10440   4.131   2.383   8.490
   168G11  C0FP10441   4.197   2.266   8.450
   168G11  C0GO10442   4.151   2.192   8.344
   168G11  C0GN10443   4.193   2.061   8.314
   168G11  C0GR10444   4.300   2.011   8.398
   168G11  C0GS10445   4.349   1.880   8.376
   168G11  H01Q10446   4.435   1.851   8.435
   168G11  C0GT10447   4.290   1.799   8.277
   168G11  H01O10448   4.310   1.697   8.250
   168G11  C0GU10449   4.179   1.845   8.208
   168G11  H01P10450   4.134   1.774   8.139
   168G11  O00L10451   4.361   2.096   8.485
   168G11  C0GM10452   4.128   1.978   8.213
   168G11  C0GL10453   4.018   2.036   8.148
   168G11  H01R10454   3.961   1.974   8.080
   168G11  C0GK10455   3.984   2.172   8.166
   168G11  C0GP10456   3.875   2.261   8.131
   168G11  C0E210457   3.889   2.389   8.199
   168G11  C0E110458   3.763   2.437   8.241
   168G11  C0DU10459   3.724   2.472   8.379
   168G11  C0DT10460   3.792   2.528   8.485
   168G11  C0E410461   3.929   2.514   8.495
   168G11  C0E510462   3.962   2.566   8.617
   168G11  C0DS10463   3.741   2.554   8.613
   168G11  C0DR10464   3.608   2.514   8.640
   168G11  C0DD10465   3.556   2.503   8.769
   168G11  C0DC10466   3.428   2.439   8.736
   168G11  C0DP10467   3.418   2.383   8.601
   168G11  C0DA10468   3.314   2.304   8.535
   168G11  C0D910469   3.173   2.262   8.580
   168G11  C0CR10470   3.085   2.182   8.498
   168G11  C0C010471   3.120   2.133   8.373
   168G11  C0BZ10472   3.051   2.049   8.290
   168G11  C0C110473   3.104   2.010   8.167
   168G11  C0C710474   3.022   1.934   8.080
   168G11  C0C610475   3.077   1.881   7.960
   168G11  C0C910476   2.996   1.817   7.872
   168G11  C0B810477   3.054   1.764   7.757
   168G11  C0B710478   2.972   1.700   7.661
   168G11  C0B610479   3.003   1.617   7.541
   168G11  C0B510480   3.109   1.523   7.535
   168G11  H00Z10481   3.187   1.514   7.608
   168G11  C0B410482   3.069   1.429   7.430
   168G11  H01010483   3.095   1.326   7.409
   168G11  C0B310484   2.948   1.473   7.371
   168G11  C0AP10485   2.815   1.405   7.352
   168G11  C0AQ10486   2.720   1.493   7.410
   168G11  C0AR10487   2.598   1.444   7.453
   168G11  C0AS10488   2.554   1.503   7.561
   168G11  C0AT10489   2.616   1.598   7.643
   168G11  C0BA10490   2.742   1.632   7.605
   168G11  C0AU10491   2.570   1.627   7.766
   168G11  C0BE10492   2.656   1.696   7.852
   168G11  C0BI10493   2.608   1.733   7.977
   168G11  C0BJ10494   2.476   1.695   8.016
   168G11  C0BK10495   2.424   1.737   8.135
   168G11  C0BW10496   2.495   1.819   8.219
   168G11  C0BV10497   2.630   1.846   8.185
   168G11  C0BU10498   2.703   1.925   8.272
   168G11  C0BX10499   2.837   1.953   8.240
   168G11  C0BT10500   2.650   1.979   8.386
   168G11  C0CD10501   2.729   2.054   8.469
   168G11  C0CB10502   2.869   2.069   8.446
   168G11  C0CE10503   2.676   2.106   8.582
   168G11  C0CK10504   2.540   2.090   8.606
   168G11  C0BS10505   2.456   2.019   8.522
   168G11  C0CJ10506   2.319   1.998   8.552
   168G11  C0BP10507   2.245   1.916   8.466
   168G11  C0CI10508   2.113   1.881   8.495
   168G11  C0CH10509   2.050   1.778   8.425
   168G11  H01210510   1.955   1.747   8.465
   168G11  C0BN10511   2.105   1.726   8.301
   168G11  C0CG10512   2.028   1.642   8.213
   168G11  C0CF10513   1.889   1.613   8.244
   168G11  H01310514   1.838   1.655   8.328
   168G11  O00G10515   1.816   1.545   8.148
   168G11  C0AA10516   1.880   1.478   8.052
   168G11  C0A910517   1.807   1.387   7.967
   168G11  H00U10518   1.702   1.382   7.990
   168G11  C0A810519   1.868   1.315   7.868
   168G11  H00V10520   1.793   1.249   7.827
   168G11  C0A710521   2.000   1.333   7.834
   168G11  C0A610522   2.070   1.449   7.902
   168G11  C0A510523   2.197   1.489   7.869
   168G11  C0A410524   2.260   1.442   7.750
   168G11  C0A310525   2.244   1.351   7.637
   168G11  C0A210526   2.156   1.247   7.638
   168G11  C0A110527   2.153   1.146   7.540
   168G11  C0A010528   2.239   1.101   7.427
   168G11  C09Z10529   2.199   0.981   7.362
   168G11  C09Y10530   2.280   0.922   7.259
   168G11  H00Y10531   2.253   0.826   7.219
   168G11  C09X10532   2.406   0.982   7.230
   168G11  C09W10533   2.480   0.919   7.129
   168G11  H00R10534   2.441   0.836   7.072
   168G11  C0AX10535   2.616   0.946   7.110
   168G11  H00S10536   2.683   0.882   7.055
   168G11  C0AW10537   2.668   1.058   7.170
   168G11  H00T10538   2.770   1.079   7.144
   168G11  C0AN10539   2.592   1.128   7.267
   168G11  C0AO10540   2.637   1.247   7.323
   168G11  C0AM10541   2.458   1.089   7.302
   168G11  C0B210542   2.074   0.913   7.386
   168G11  O00D10543   2.032   0.818   7.324
   168G11  C0B110544   1.996   0.955   7.502
   168G11  H00W10545   1.915   0.893   7.538
   168G11  C0AL10546   2.371   1.156   7.397
   168G11  C0AK10547   2.427   1.269   7.450
   168G11  C0B010548   2.037   1.070   7.570
   168G11  C0AZ10549   1.974   1.126   7.683
   168G11  H00X10550   1.896   1.077   7.738
   168G11  C0AJ10551   2.360   1.345   7.552
   168G11  C0AH10552   2.374   1.503   7.721
   168G11  C0AE10553   2.270   1.573   7.953
   168G11  C0AD10554   2.217   1.628   8.073
   168G11  C0AY10555   2.045   1.241   7.728
   168G11  C0AB10556   2.012   1.507   8.015
   168G11  C0AC10557   2.089   1.592   8.100
   168G11  C0BM10558   2.236   1.761   8.275
   168G11  C0CM10559   2.044   1.969   8.588
   168G11  C09M10560   2.121   2.036   8.693
   168G11  C09810561   2.051   2.051   8.817
   168G11  C08R10562   2.074   2.141   8.927
   168G11  C08Q10563   1.990   2.124   9.044
   168G11  C08P10564   1.940   2.203   9.152
   168G11  C08Y10565   1.806   2.171   9.195
   168G11  C09710566   1.725   2.087   9.121
   168G11  C09610567   1.598   2.132   9.113
   168G11  C09010568   1.592   2.230   9.218
   168G11  C09510569   1.485   2.314   9.247
   168G11  C09410570   1.478   2.399   9.370
   168G11  C08J10571   1.580   2.461   9.451
   168G11  C08I10572   1.535   2.587   9.494
   168G11  C08H10573   1.657   2.670   9.529
   168G11  C08G10574   1.770   2.591   9.476
   168G11  C08F10575   1.916   2.594   9.465
   168G11  C08E10576   1.986   2.683   9.548
   168G11  C05910577   1.936   2.753   9.666
   168G11  C05810578   2.021   2.830   9.745
   168G11  C05710579   1.984   2.903   9.855
   168G11  C05610580   1.844   2.902   9.891
   168G11  C05510581   1.750   2.815   9.830
   168G11  C05410582   1.627   2.875   9.842
   168G11  C05310583   1.645   2.999   9.917
   168G11  C05210584   1.562   3.118   9.937
   168G11  C05110585   1.436   3.123   9.865
   168G11  C05U10586   1.382   3.032   9.769
   168G11  C05T10587   1.440   2.920   9.694
   168G11  C06K10588   1.323   2.860   9.635
   168G11  H00J10589   1.330   2.763   9.588
   168G11  C06L10590   1.203   2.927   9.662
   168G11  H00I10591   1.102   2.902   9.634
   168G11  C05V10592   1.244   3.034   9.738
   168G11  C06J10593   1.163   3.139   9.771
   168G11  H00K10594   1.059   3.141   9.740
   168G11  C05X10595   1.216   3.244   9.842
   168G11  C06I10596   1.136   3.358   9.868
   168G11  H00L10597   1.039   3.358   9.819
   168G11  C04Z10598   1.184   3.465   9.948
   168G11  C06H10599   1.102   3.581   9.971
   168G11  H00H10600   1.001   3.577   9.934
   168G11  C04Y10601   1.157   3.690  10.046
   168G11  C06G10602   1.069   3.802  10.066
   168G11  O00910603   0.956   3.813  10.027
   168G11  O00810604   1.128   3.916  10.128
   168G11  C04P10605   1.253   3.915  10.182
   168G11  C04J10606   1.313   4.021  10.259
   168G11  C04Q10607   1.256   4.137  10.308
   168G11  H00E10608   1.152   4.150  10.280
   168G11  C04M10609   1.322   4.243  10.380
   168G11  C04R10610   1.276   4.371  10.408
   168G11  H00F10611   1.182   4.406  10.369
   168G11  C04S10612   1.354   4.460  10.471
   168G11  H00G10613   1.315   4.561  10.478
   168G11  O00710614   1.483   4.435  10.518
   168G11  C03V10615   1.532   4.307  10.492
   168G11  C03U10616   1.669   4.284  10.528
   168G11  O00610617   1.728   4.388  10.597
   168G11  C03F10618   1.864   4.379  10.614
   168G11  C03E10619   1.941   4.262  10.574
   168G11  C03D10620   1.870   4.158  10.511
   168G11  C03C10621   1.944   4.045  10.467
   168G11  C03B10622   2.082   4.043  10.498
   168G11  C03A10623   2.154   3.929  10.458
   168G11  C03910624   2.096   3.815  10.401
   168G11  C03810625   2.213   3.736  10.366
   168G11  C03710626   2.322   3.808  10.413
   168G11  C03610627   2.447   3.753  10.417
   168G11  C02R10628   2.565   3.818  10.429
   168G11  C03510629   2.664   3.722  10.398
   168G11  C03R10630   2.601   3.610  10.343
   168G11  C03S10631   2.656   3.533  10.238
   168G11  C04910632   2.570   3.451  10.172
   168G11  C04810633   2.431   3.456  10.203
   168G11  C03P10634   2.369   3.557  10.292
   168G11  C04710635   2.355   3.358  10.142
   168G11  C04610636   2.222   3.327  10.161
   168G11  C04510637   2.121   3.405  10.222
   168G11  C03T10638   2.121   3.529  10.285
   168G11  C04410639   1.985   3.565  10.307
   168G11  C04310640   1.906   3.452  10.282
   168G11  C04210641   1.780   3.494  10.235
   168G11  C04110642   1.783   3.640  10.252
   168G11  C04010643   1.671   3.720  10.248
   168G11  C03Z10644   1.646   3.854  10.300
   168G11  C04H10645   1.512   3.884  10.282
   168G11  C04G10646   1.458   3.781  10.203
   168G11  C03N10647   1.728   3.951  10.376
   168G11  C03Y10648   1.655   4.073  10.413
   168G11  C03X10649   1.519   4.096  10.380
   168G11  C04F10650   1.548   3.677  10.188
   168G11  C04E10651   1.500   3.563  10.125
   168G11  C04O10652   1.373   3.575  10.068
   168G11  C04D10653   1.568   3.445  10.113
   168G11  C04V10654   1.512   3.340  10.034
   168G11  C04W10655   1.387   3.344   9.974
   168G11  C04C10656   1.690   3.404  10.167
   168G11  C04L10657   1.713   3.274  10.098
   168G11  C04U10658   1.832   3.191  10.116
   168G11  C05Q10659   1.864   3.089  10.024
   168G11  C05P10660   2.001   3.081  10.010
   168G11  C04T10661   2.061   3.176  10.087
   168G11  C04B10662   1.959   3.245  10.152
   168G11  C03M10663   1.905   3.685  10.317
   168G11  C04A10664   1.988   3.361  10.217
   168G11  C05H10665   2.190   3.219  10.086
   168G11  C05G10666   2.306   3.177  10.018
   168G11  C05F10667   2.313   3.076   9.924
   168G11  C05E10668   2.418   3.043   9.837
   168G11  C05L10669   2.553   3.091   9.815
   168G11  C05K10670   2.615   3.183   9.903
   168G11  C05J10671   2.551   3.268  10.003
   168G11  C06610672   2.751   3.200   9.874
   168G11  C06510673   2.819   3.121   9.780
   168G11  C06410674   2.754   3.024   9.701
   168G11  C06N10675   2.952   3.139   9.750
   168G11  C06910676   3.020   3.243   9.814
   168G11  C06P10677   3.153   3.274   9.773
   168G11  C06R10678   3.220   3.387   9.830
   168G11  C06B10679   3.162   3.459   9.933
   168G11  C06S10680   3.225   3.577   9.980
   168G11  C02G10681   3.160   3.651  10.077
   168G11  C02F10682   3.226   3.762  10.122
   168G11  C02710683   3.346   3.807  10.072
   168G11  C02610684   3.403   3.927  10.115
   168G11  C00E10685   3.519   3.971  10.053
   168G11  C00D10686   3.584   4.088  10.100
   168G11  C00C10687   3.688   4.140  10.026
   168G11  C00B10688   3.737   4.083   9.914
   168G11  C01510689   3.685   3.958   9.873
   168G11  C07F10690   3.736   3.889   9.768
   168G11  C07E10691   3.686   3.764   9.738
   168G11  C06W10692   3.581   3.709   9.811
   168G11  C06V10693   3.517   3.781   9.910
   168G11  C06X10694   3.518   3.591   9.769
   168G11  C07B10695   3.579   3.519   9.668
   168G11  C07C10696   3.686   3.571   9.598
   168G11  C0FU10697   3.737   3.501   9.491
   168G11  C0F710698   3.847   3.548   9.418
   168G11  C0F610699   3.895   3.478   9.313
   168G11  C0F810700   3.997   3.535   9.236
   168G11  C0F910701   4.046   3.467   9.123
   168G11  C0FA10702   4.143   3.528   9.046
   168G11  C0FZ10703   4.190   3.658   9.076
   168G11  C0G010704   4.279   3.720   8.991
   168G11  C0GD10705   4.326   3.660   8.871
   168G11  C0FC10706   4.287   3.526   8.846
   168G11  C0GH10707   4.329   3.460   8.725
   168G11  C0EY10708   4.301   3.322   8.707
   168G11  C0EX10709   4.349   3.247   8.597
   168G11  C0EW10710   4.326   3.112   8.592
   168G11  C0FR10711   4.370   3.031   8.480
   168G11  H01D10712   4.358   2.923   8.477
   168G11  C0FS10713   4.430   3.097   8.378
   168G11  H01C10714   4.469   3.050   8.289
   168G11  C0GJ10715   4.457   3.236   8.389
   168G11  H01N10716   4.518   3.280   8.311
   168G11  C0EV10717   4.262   3.053   8.702
   168G11  C0FT10718   4.254   2.905   8.713
   168G11  H01E10719   4.310   2.840   8.647
   168G11  C0EU10720   4.192   3.129   8.794
   168G11  C0ET10721   4.095   3.074   8.876
   168G11  C0EI10722   4.014   3.144   8.964
   168G11  C0F110723   4.055   3.273   8.987
   168G11  C0F010724   4.147   3.337   8.903
   168G11  C0EH10725   3.902   3.080   9.029
   168G11  C0EG10726   3.861   2.948   8.996
   168G11  C0EJ10727   3.849   3.155   9.133
   168G11  C0F310728   3.899   3.281   9.169
   168G11  C0EK10729   3.744   3.104   9.206
   168G11  C0EL10730   3.686   2.975   9.165
   168G11  C0EM10731   3.564   2.948   9.236
   168G11  C0EN10732   3.524   3.030   9.337
   168G11  C07I10733   3.402   2.991   9.385
   168G11  C07410734   3.337   3.055   9.494
   168G11  C07310735   3.212   3.011   9.525
   168G11  C07210736   3.152   3.082   9.626
   168G11  C07510737   3.404   3.167   9.540
   168G11  C07610738   3.527   3.208   9.491
   168G11  C07810739   3.582   3.325   9.528
   168G11  C07G10740   3.344   3.232   9.643
   168G11  C07010741   3.409   3.349   9.685
   168G11  C07Z10742   3.352   2.883   9.314
   168G11  C07710743   3.583   3.144   9.386
   168G11  C0EO10744   3.698   3.177   9.318
   168G11  C0F410745   3.749   3.298   9.355
   168G11  C0EQ10746   4.068   2.939   8.866
   168G11  C0FQ10747   4.412   3.317   8.494
   168G11  C0GI10748   4.436   3.452   8.512
   168G11  H01L10749   4.491   3.496   8.430
   168G11  C0EZ10750   4.210   3.268   8.801
   168G11  C0GG10751   4.403   3.522   8.624
   168G11  C0GF10752   4.432   3.659   8.652
   168G11  H01M10753   4.477   3.711   8.570
   168G11  C0GE10754   4.409   3.718   8.775
   168G11  H01K10755   4.448   3.817   8.793
   168G11  O00J10756   4.325   3.848   9.015
   168G11  C0GA10757   4.277   3.911   9.128
   168G11  C0G910758   4.324   4.040   9.149
   168G11  H01H10759   4.397   4.086   9.083
   168G11  C0G810760   4.271   4.119   9.254
   168G11  C0G710761   4.303   4.260   9.277
   168G11  H01I10762   4.382   4.294   9.212
   168G11  O00I10763   4.241   4.340   9.366
   168G11  C0G610764   4.136   4.277   9.434
   168G11  H01J10765   4.082   4.344   9.499
   168G11  C02D10766   4.115   4.138   9.434
   168G11  C02C10767   4.021   4.076   9.525
   168G11  C01710768   3.970   4.142   9.643
   168G11  C01610769   3.879   4.076   9.725
   168G11  O00110770   4.034   4.256   9.686
   168G11  C01810771   3.978   4.334   9.781
   168G11  C00910772   3.879   4.276   9.870
   168G11  C00810773   3.813   4.343   9.979
   168G11  C00710774   3.814   4.475  10.028
   168G11  C00610775   3.885   4.581   9.976
   168G11  C00510776   3.873   4.717  10.026
   168G11  C00410777   3.777   4.780  10.117
   168G11  C00310778   3.665   4.722  10.197
   168G11  C00210779   3.583   4.801  10.279
   168G11  C00P10780   3.466   4.750  10.343
   168G11  C00O10781   3.376   4.834  10.408
   168G11  C00N10782   3.258   4.796  10.466
   168G11  C01010783   3.167   4.882  10.527
   168G11  C01110784   3.038   4.846  10.564
   168G11  C01Q10785   2.950   4.937  10.621
   168G11  C01U10786   2.987   5.070  10.638
   168G11  C01210787   3.121   5.105  10.607
   168G11  H00010788   3.157   5.206  10.623
   168G11  C01V10789   2.887   5.159  10.693
   168G11  H00710790   2.915   5.259  10.723
   168G11  O00510791   2.756   5.121  10.710
   168G11  C01W10792   2.721   4.997  10.676
   168G11  C03110793   2.587   4.973  10.656
   168G11  C03210794   2.542   4.845  10.621
   168G11  H00A10795   2.437   4.819  10.621
   168G11  C03310796   2.641   4.740  10.600
   168G11  H00B10797   2.616   4.639  10.570
   168G11  C01O10798   2.774   4.766  10.609
   168G11  C01N10799   2.867   4.666  10.579
   168G11  C01M10800   2.838   4.520  10.588
   168G11  C01L10801   2.730   4.415  10.603
   168G11  C01K10802   2.790   4.293  10.568
   168G11  C01Y10803   2.718   4.180  10.531
   168G11  C02I10804   2.583   4.172  10.540
   168G11  C02N10805   2.521   4.053  10.498
   168G11  C02M10806   2.379   4.050  10.501
   168G11  C02L10807   2.299   4.153  10.552
   168G11  C02K10808   2.367   4.268  10.599
   168G11  C02U10809   2.292   4.379  10.641
   168G11  C02V10810   2.153   4.374  10.627
   168G11  C03H10811   2.072   4.486  10.663
   168G11  H00C10812   2.102   4.585  10.694
   168G11  C02W10813   2.358   4.476  10.713
   168G11  C02X10814   2.498   4.478  10.705
   168G11  C02Y10815   2.533   4.565  10.807
   168G11  H00810816   2.629   4.592  10.847
   168G11  C02Z10817   2.407   4.637  10.838
   168G11  O00410818   2.385   4.749  10.882
   168G11  O00310819   2.306   4.564  10.788
   168G11  C02J10820   2.513   4.282  10.593
   168G11  C01Z10821   2.806   4.086  10.477
   168G11  C02010822   2.940   4.111  10.441
   168G11  C01I10823   3.001   4.225  10.477
   168G11  C01H10824   3.121   4.266  10.435
   168G11  C00K10825   3.154   4.394  10.442
   168G11  C01S10826   3.071   4.488  10.500
   168G11  C01410827   3.102   4.620  10.504
   168G11  C00J10828   3.280   4.438  10.393
   168G11  C00I10829   3.367   4.347  10.332
   168G11  C00H10830   3.326   4.214  10.314
   168G11  C00G10831   3.398   4.125  10.245
   168G11  C00S10832   3.484   4.392  10.274
   168G11  C00T10833   3.559   4.298  10.217
   168G11  C00U10834   3.668   4.345  10.142
   168G11  C00R10835   3.520   4.530  10.268
   168G11  C00L10836   3.312   4.575  10.400
   168G11  C02810837   3.200   4.176  10.363
   168G11  C02310838   3.149   4.051  10.331
   168G11  C02410839   3.222   3.962  10.259
   168G11  C02110840   3.014   4.025  10.368
   168G11  C02210841   2.962   3.905  10.338
   168G11  C02H10842   3.038   3.813  10.265
   168G11  C03010843   2.978   3.691  10.220
   168G11  C03410844   2.849   3.663  10.257
   168G11  C02P10845   2.837   3.871  10.379
   168G11  C02B10846   2.751   3.967  10.442
   168G11  C01J10847   2.921   4.311  10.550
   168G11  C01X10848   2.586   4.398  10.632
   168G11  C01T10849   2.954   4.442  10.560
   168G11  H00910850   2.517   5.053  10.675
   168G11  C01P10851   2.816   4.898  10.640
   168G11  C01R10852   3.001   4.710  10.551
   168G11  C00Z10853   3.209   5.014  10.542
   168G11  O00010854   3.330   5.052  10.497
   168G11  C00M10855   3.226   4.661  10.461
   168G11  C00Y10856   3.414   4.964  10.431
   168G11  C01310857   3.528   5.014  10.371
   168G11  H00110858   3.547   5.119  10.386
   168G11  C00Q10859   3.433   4.617  10.335
   168G11  C00110860   3.608   4.939  10.291
   168G11  C00010861   3.717   4.996  10.222
   168G11  H00610862   3.734   5.101  10.242
   168G11  C00W10863   3.631   4.582  10.201
   168G11  C01G10864   3.791   4.917  10.132
   168G11  H00510865   3.873   4.974  10.090
   168G11  C01C10866   3.974   4.791   9.953
   168G11  H00210867   3.996   4.896   9.945
   168G11  C01B10868   4.046   4.700   9.868
   168G11  C01D10869   4.148   4.734   9.771
   168G11  H00310870   4.188   4.833   9.753
   168G11  C01E10871   4.189   4.631   9.691
   168G11  H00410872   4.252   4.640   9.605
   168G11  O00210873   4.133   4.504   9.696
   168G11  C01A10874   3.986   4.574   9.881
   168G11  C00V10875   3.704   4.482  10.123
   168G11  C01910876   4.034   4.472   9.790
   168G11  C02E10877   3.979   3.937   9.506
   168G11  C0FX10878   4.037   3.863   9.403
   168G11  C0FW10879   3.986   3.736   9.366
   168G11  C0GB10880   4.128   3.926   9.320
   168G11  C0G310881   3.886   3.878   9.583
   168G11  C07H10882   3.838   3.747   9.558
   168G11  C0GC10883   4.172   4.064   9.338
   168G11  C0G210884   4.175   3.856   9.209
   168G11  C0G110885   4.134   3.729   9.182
   168G11  C0FB10886   4.195   3.465   8.930
   168G11  C0F210887   3.998   3.342   9.093
   168G11  C0FY10888   4.038   3.666   9.260
   168G11  C0F510889   3.846   3.352   9.277
   168G11  C0FV10890   3.890   3.678   9.449
   168G11  C07910891   3.692   3.374   9.460
   168G11  C07A10892   3.525   3.402   9.625
   168G11  C06Y10893   3.409   3.541   9.831
   168G11  C07D10894   3.740   3.688   9.636
   168G11  C01F10895   3.838   3.947   9.694
   168G11  C00A10896   3.834   4.144   9.839
   168G11  C00X10897   3.733   4.267  10.056
   168G11  C00F10898   3.519   4.167  10.192
   168G11  C02910899   3.576   3.902   9.948
   168G11  C02510900   3.343   4.004  10.210
   168G11  C06U10901   3.407   3.733   9.974
   168G11  C02A10902   3.159   3.850  10.212
   168G11  C05Y10903   3.037   3.610  10.126
   168G11  C05Z10904   2.972   3.498  10.073
   168G11  C06010905   2.841   3.469  10.108
   168G11  C06210906   2.761   3.376  10.040
   168G11  C06T10907   3.349   3.616   9.934
   168G11  C06A10908   3.033   3.422   9.976
   168G11  C06Z10909   3.346   3.426   9.781
   168G11  C06Q10910   3.220   3.189   9.689
   168G11  C06810911   2.957   3.320   9.912
   168G11  C06710912   2.826   3.297   9.942
   168G11  C06310913   2.617   3.007   9.719
   168G11  C06C10914   2.554   2.907   9.642
   168G11  C06D10915   2.421   2.876   9.653
   168G11  C06E10916   2.347   2.786   9.583
   168G11  C07Q10917   2.410   2.719   9.484
   168G11  C07P10918   2.549   2.740   9.466
   168G11  C07T10919   2.612   2.666   9.367
   168G11  C07U10920   2.746   2.681   9.345
   168G11  C07V10921   2.810   2.613   9.246
   168G11  C08410922   2.735   2.531   9.166
   168G11  C08C10923   2.600   2.519   9.187
   168G11  C08B10924   2.523   2.438   9.104
   168G11  C08A10925   2.395   2.426   9.131
   168G11  C08910926   2.322   2.480   9.232
   168G11  C08810927   2.187   2.452   9.254
   168G11  C08710928   2.122   2.524   9.355
   168G11  C08610929   2.189   2.610   9.438
   168G11  C08X10930   2.123   2.356   9.171
   168G11  C08T10931   2.191   2.306   9.052
   168G11  C08D10932   2.396   2.564   9.318
   168G11  C08U10933   2.329   2.334   9.051
   168G11  C08V10934   2.379   2.287   8.937
   168G11  C0CY10935   2.515   2.295   8.909
   168G11  C0CX10936   2.565   2.218   8.803
   168G11  C0CW10937   2.703   2.238   8.777
   168G11  C0CV10938   2.777   2.319   8.863
   168G11  C0D410939   2.720   2.382   8.976
   168G11  C0CU10940   2.913   2.330   8.848
   168G11  C0CT10941   2.971   2.279   8.733
   168G11  C0CS10942   2.893   2.196   8.650
   168G11  C0D610943   2.981   2.399   8.941
   168G11  C0EC10944   2.925   2.470   9.046
   168G11  C07X10945   3.000   2.549   9.134
   168G11  C0DL10946   3.119   2.410   8.920
   168G11  C0DK10947   3.191   2.499   8.998
   168G11  C0DN10948   3.317   2.499   8.953
   168G11  C0D810949   3.186   2.368   8.808
   168G11  C08W10950   2.291   2.213   8.854
   168G11  C0CQ10951   2.341   2.142   8.734
   168G11  C09310952   2.587   2.371   8.999
   168G11  C09210953   2.795   2.460   9.062
   168G11  C08510954   2.534   2.578   9.291
   168G11  C07S10955   2.330   2.627   9.416
   168G11  C06F10956   2.208   2.762   9.609
   168G11  C07O10957   2.620   2.826   9.546
   168G11  C07N10958   2.749   2.845   9.526
   168G11  C05D10959   2.363   2.946   9.752
   168G11  C05C10960   2.234   2.918   9.781
   168G11  C05N10961   2.199   2.998   9.885
   168G11  C05M10962   2.412   3.270  10.045
   168G11  C05I10963   2.624   3.364  10.071
   168G11  C06110964   2.783   3.554  10.199
   168G11  C02Q10965   2.792   3.750  10.345
   168G11  C02O10966   2.607   3.950  10.454
   168G11  C03Q10967   2.466   3.631  10.354
   168G11  C03O10968   2.231   3.604  10.306
   168G11  C03L10969   1.948   3.811  10.372
   168G11  C02S10970   2.298   3.940  10.457
   168G11  C02T10971   2.158   4.151  10.547
   168G11  C03K10972   1.869   3.935  10.404
   168G11  C03I10973   2.085   4.261  10.584
   168G11  C03G10974   1.935   4.485  10.668
   168G11  H00D10975   1.884   4.562  10.724
   168G11  C03J10976   1.733   4.168  10.483
   168G11  C03W10977   1.459   4.214  10.413
   168G11  C04I10978   1.445   4.010  10.301
   168G11  C04K10979   1.328   3.797  10.159
   168G11  C04N10980   1.290   3.689  10.087
   168G11  C04X10981   1.312   3.463  10.000
   168G11  C05010982   1.348   3.232   9.891
   168G11  C05W10983   1.599   3.231  10.019
   168G11  C05S10984   1.568   2.853   9.716
   168G11  C05R10985   1.779   2.999   9.957
   168G11  C05O10986   2.066   2.997   9.926
   168G11  C05B10987   2.153   2.834   9.707
   168G11  C05A10988   1.796   2.768   9.703
   168G11  C07R10989   2.122   2.684   9.532
   168G11  C08N10990   1.982   2.512   9.369
   168G11  C08M10991   1.919   2.412   9.291
   168G11  C08L10992   1.785   2.381   9.324
   168G11  C09110993   1.667   2.763   9.642
   168G11  C09K10994   1.416   2.617   9.414
   168G11  H00M10995   1.372   2.713   9.394
   168G11  C08K10996   1.713   2.473   9.410
   168G11  C09J10997   1.378   2.493   9.345
   168G11  C09I10998   1.310   2.451   9.232
   168G11  C09L10999   1.180   2.488   9.188
   168G11  H00N11000   1.125   2.572   9.230
   168G11  C09Q11001   1.131   2.414   9.087
   168G11  H00O11002   1.033   2.436   9.047
   168G11  O00B11003   1.191   2.303   9.028
   168G11  C09G11004   1.317   2.267   9.066
   168G11  C09F11005   1.378   2.168   8.984
   168G11  O00A11006   1.295   2.124   8.880
   168G11  C09P11007   1.339   2.007   8.826
   168G11  H00P11008   1.276   1.920   8.817
   168G11  C09O11009   1.481   1.999   8.790
   168G11  C09D11010   1.567   2.037   8.892
   168G11  C09C11011   1.709   2.009   8.905
   168G11  C09N11012   1.811   1.973   8.810
   168G11  C09T11013   1.794   1.993   8.676
   168G11  C09S11014   1.665   1.976   8.619
   168G11  C0CP11015   1.695   1.952   8.483
   168G11  C0CN11016   1.827   1.967   8.448
   168G11  C0CO11017   1.860   1.954   8.313
   168G11  H01411018   1.965   1.965   8.289
   168G11  C0CZ11019   1.766   1.894   8.228
   168G11  H01511020   1.798   1.871   8.127
   168G11  C0D011021   1.629   1.871   8.263
   168G11  C0G511022   1.530   1.805   8.185
   168G11  H01F11023   1.543   1.764   8.085
   168G11  C0G411024   1.407   1.806   8.228
   168G11  H01G11025   1.329   1.760   8.169
   168G11  O00H11026   1.361   1.862   8.344
   168G11  C0D211027   1.461   1.908   8.428
   168G11  C09V11028   1.427   1.935   8.561
   168G11  H00Q11029   1.322   1.926   8.583
   168G11  C0D111030   1.589   1.911   8.394
   168G11  C09R11031   1.527   1.971   8.657
   168G11  C09H11032   1.371   2.335   9.173
   168G11  C09E11033   1.507   2.110   9.002
   168G11  C09B11034   1.781   2.019   9.018
   168G11  C08Z11035   1.725   2.266   9.254
   168G11  C08O11036   1.989   2.327   9.200
   168G11  C09A11037   1.922   2.004   9.006
   168G11  C08S11038   2.174   2.228   8.932
   168G11  C09911039   1.943   1.979   8.867
   168G11  C09U11040   1.898   1.984   8.570
   168G11  C0BO11041   2.306   1.853   8.358
   168G11  C0CL11042   2.258   2.059   8.661
   168G11  C0D311043   2.482   2.153   8.712
   168G11  C0D511044   2.760   2.172   8.673
   168G11  C0BR11045   2.518   1.960   8.410
   168G11  C0BQ11046   2.440   1.882   8.328
   168G11  C0BL11047   2.293   1.709   8.160
   168G11  C0AF11048   2.394   1.622   7.927
   168G11  C0BH11049   2.683   1.805   8.066
   168G11  C0BG11050   2.809   1.838   8.031
   168G11  C0BD11051   2.787   1.723   7.815
   168G11  C0AG11052   2.449   1.586   7.808
   168G11  C0AI11053   2.431   1.451   7.605
   168G11  C0AV11054   2.552   1.322   7.409
   168G11  C0BB11055   2.787   1.599   7.474
   168G11  O00C11056   2.772   1.284   7.302
   168G11  C0BC11057   2.916   1.605   7.429
   168G11  C0B911058   2.836   1.685   7.688
   168G11  O00E11059   3.187   1.771   7.730
   168G11  C0CA11060   3.266   1.853   7.806
   168G11  O00F11061   3.382   1.879   7.770
   168G11  C0BF11062   2.864   1.794   7.905
   168G11  C0C511063   3.205   1.904   7.927
   168G11  C0C411064   3.282   1.999   7.997
   168G11  H01111065   3.386   2.016   7.972
   168G11  C0C811066   2.886   1.914   8.112
   168G11  C0C211067   3.227   2.051   8.118
   168G11  C0C311068   3.295   2.132   8.209
   168G11  C0DY11069   3.408   2.199   8.178
   168G11  H01611070   3.464   2.215   8.087
   168G11  C0DX11071   3.442   2.268   8.299
   168G11  C0DW11072   3.563   2.340   8.304
   168G11  C0BY11073   2.921   2.020   8.328
   168G11  C0DB11074   3.247   2.173   8.335
   168G11  C0CC11075   2.953   2.145   8.532
   168G11  C0D711076   3.107   2.299   8.704
   168G11  C0DZ11077   3.340   2.259   8.399
   168G11  C0DM11078   3.319   2.421   8.832
   168G11  C0DQ11079   3.538   2.436   8.540
   168G11  C0DV11080   3.598   2.416   8.415
   168G11  C0E011081   3.673   2.338   8.202
   168G11  C0FO11082   3.997   2.373   8.288
   168G11  C0E311083   3.732   2.226   8.128
   168G11  H01711084   3.685   2.129   8.118
   168G11  C0GV11085   4.057   2.247   8.260
   168G11  C0ES11086   4.021   2.436   8.419
   168G11  C0GQ11087   4.296   2.204   8.531
   168G11  C0FJ11088   4.322   2.452   8.804
   168G11  C0ED11089   4.090   2.542   8.678
   168G11  C0ER11090   4.147   2.853   8.791
   168G11  C0EP11091   3.958   2.879   8.913
   168G11  C0E611092   3.846   2.603   8.695
   168G11  C0DE11093   3.614   2.572   8.892
   168G11  C0EA11094   3.741   2.893   9.059
   168G11  C0DF11095   3.550   2.571   9.017
   168G11  C08011096   3.458   2.852   9.223
   168G11  C0DO11097   3.410   2.566   9.033
   168G11  C0DJ11098   3.133   2.568   9.108
   168G11  C07K11099   3.217   2.835   9.354
   168G11  C07W11100   2.944   2.630   9.226
   168G11  C08311101   2.818   2.772   9.429
   168G11  C07J11102   3.152   2.908   9.458
   168G11  C06O11103   3.023   3.067   9.650
   168G11  C06M11104   2.820   2.943   9.604
   178G11  C07111105   7.896   1.312   5.654
   178G11  C07L11106   8.033   1.339   5.686
   178G11  C07M11107   8.127   1.358   5.584
   178G11  C07Y11108   8.264   1.387   5.615
   178G11  C08111109   8.307   1.379   5.751
   178G11  C08211110   8.448   1.395   5.778
   178G11  C0DI11111   8.523   1.413   5.904
   178G11  C0DH11112   8.488   1.411   6.043
   178G11  C0DG11113   8.600   1.419   6.134
   178G11  C0E911114   8.646   1.347   6.249
   178G11  C0E811115   8.797   1.352   6.241
   178G11  C0E711116   8.897   1.354   6.350
   178G11  C0EB11117   8.857   1.330   6.488
   178G11  C0EF11118   8.936   1.346   6.609
   178G11  C0EE11119   9.045   1.428   6.637
   178G11  C0FD11120   9.044   1.488   6.767
   178G11  C0FE11121   8.931   1.505   6.857
   178G11  H01B11122   8.836   1.471   6.818
   178G11  C0FF11123   8.936   1.556   6.984
   178G11  H01A11124   8.847   1.562   7.045
   178G11  C0FG11125   9.060   1.598   7.026
   178G11  H01811126   9.060   1.632   7.129
   178G11  C0FH11127   9.178   1.592   6.946
   178G11  C0FI11128   9.305   1.636   6.993
   178G11  H01911129   9.305   1.674   7.094
   178G11  O00K11130   9.418   1.633   6.913
   178G11  C0FL11131   9.407   1.571   6.790
   178G11  C0FK11132   9.282   1.530   6.734
   178G11  C0FM11133   9.277   1.467   6.608
   178G11  C0FN11134   9.401   1.441   6.547
   178G11  C0FP11135   9.521   1.494   6.598
   178G11  C0GO11136   9.642   1.487   6.531
   178G11  C0GN11137   9.760   1.556   6.562
   178G11  C0GR11138   9.751   1.625   6.685
   178G11  C0GS11139   9.865   1.698   6.730
   178G11  H01Q11140   9.869   1.743   6.828
   178G11  C0GT11141   9.980   1.706   6.652
   178G11  H01O11142  10.063   1.769   6.682
   178G11  C0GU11143   9.982   1.637   6.525
   178G11  H01P11144  10.066   1.647   6.458
   178G11  O00L11145   9.642   1.609   6.770
   178G11  C0GM11146   9.869   1.565   6.480
   178G11  C0GL11147   9.860   1.494   6.357
   178G11  H01R11148   9.936   1.506   6.282
   178G11  C0GK11149   9.749   1.413   6.322
   178G11  C0GP11150   9.687   1.344   6.210
   178G11  C0E211151   9.574   1.272   6.258
   178G11  C0E111152   9.487   1.249   6.148
   178G11  C0DU11153   9.353   1.294   6.144
   178G11  C0DT11154   9.254   1.316   6.236
   178G11  C0E411155   9.277   1.351   6.362
   178G11  C0E511156   9.155   1.368   6.422
   178G11  C0DS11157   9.118   1.342   6.212
   178G11  C0DR11158   9.086   1.349   6.075
   178G11  C0DD11159   8.957   1.370   6.021
   178G11  C0DC11160   8.984   1.359   5.875
   178G11  C0DP11161   9.123   1.344   5.841
   178G11  C0DA11162   9.186   1.317   5.708
   178G11  C0D911163   9.127   1.299   5.574
   178G11  C0CR11164   9.206   1.246   5.468
   178G11  C0C011165   9.338   1.207   5.483
   178G11  C0BZ11166   9.417   1.143   5.392
   178G11  C0C111167   9.548   1.097   5.426
   178G11  C0C711168   9.624   1.027   5.332
   178G11  C0C611169   9.751   0.974   5.365
   178G11  C0C911170   9.820   0.893   5.275
   178G11  C0B811171   9.949   0.850   5.311
   178G11  C0B711172  10.024   0.760   5.228
   178G11  C0B611173  10.161   0.712   5.233
   178G11  C0B511174  10.267   0.804   5.257
   178G11  H00Z11175  10.269   0.892   5.320
   178G11  C0B411176  10.388   0.747   5.186
   178G11  H01011177  10.490   0.783   5.178
   178G11  C0B311178  10.343   0.636   5.101
   178G11  C0AP11179  10.353   0.571   4.968
   178G11  C0AQ11180  10.223   0.546   4.937
   178G11  C0AR11181  10.181   0.556   4.802
   178G11  C0AS11182  10.052   0.581   4.790
   178G11  C0AT11183   9.965   0.628   4.885
   178G11  C0BA11184  10.015   0.646   5.011
   178G11  C0AU11185   9.852   0.692   4.847
   178G11  C0BE11186   9.778   0.766   4.938
   178G11  C0BI11187   9.667   0.837   4.898
   178G11  C0BJ11188   9.634   0.834   4.765
   178G11  C0BK11189   9.523   0.900   4.721
   178G11  C0BW11190   9.449   0.968   4.816
   178G11  C0BV11191   9.488   0.974   4.951
   178G11  C0BU11192   9.402   1.041   5.043
   178G11  C0BX11193   9.441   1.054   5.171
   178G11  C0BT11194   9.275   1.088   5.005
   178G11  C0CD11195   9.195   1.155   5.097
   178G11  C0CB11196   9.237   1.169   5.229
   178G11  C0CE11197   9.069   1.201   5.061
   178G11  C0CK11198   9.025   1.179   4.935
   178G11  C0BS11199   9.107   1.121   4.838
   178G11  C0CJ11200   9.060   1.100   4.710
   178G11  C0BP11201   9.153   1.047   4.621
   178G11  C0CI11202   9.111   1.015   4.497
   178G11  C0CH11203   9.204   1.007   4.392
   178G11  H01211204   9.163   1.014   4.293
   178G11  C0BN11205   9.333   0.961   4.417
   178G11  C0CG11206   9.409   0.890   4.322
   178G11  C0CF11207   9.371   0.887   4.188
   178G11  H01311208   9.290   0.940   4.141
   178G11  O00G11209   9.432   0.807   4.100
   178G11  C0AA11210   9.554   0.752   4.139
   178G11  C0A911211   9.617   0.684   4.031
   178G11  H00U11212   9.569   0.683   3.934
   178G11  C0A811213   9.738   0.625   4.065
   178G11  H00V11214   9.786   0.570   3.987
   178G11  C0A711215   9.807   0.648   4.190
   178G11  C0A611216   9.729   0.708   4.298
   178G11  C0A511217   9.760   0.704   4.435
   178G11  C0A411218   9.880   0.636   4.490
   178G11  C0A311219  10.000   0.575   4.439
   178G11  C0A211220  10.035   0.564   4.306
   178G11  C0A111221  10.167   0.547   4.261
   178G11  C0A011222  10.298   0.513   4.321
   178G11  C09Z11223  10.404   0.504   4.224
   178G11  C09Y11224  10.536   0.475   4.271
   178G11  H00Y11225  10.621   0.459   4.206
   178G11  C09X11226  10.558   0.455   4.408
   178G11  C09W11227  10.689   0.411   4.445
   178G11  H00R11228  10.770   0.389   4.376
   178G11  C0AX11229  10.728   0.404   4.584
   178G11  H00S11230  10.824   0.362   4.612
   178G11  C0AW11231  10.632   0.448   4.678
   178G11  H00T11232  10.659   0.436   4.782
   178G11  C0AN11233  10.502   0.486   4.638
   178G11  C0AO11234  10.410   0.528   4.736
   178G11  C0AM11235  10.461   0.482   4.502
   178G11  C0B211236  10.399   0.533   4.084
   178G11  O00D11237  10.493   0.550   4.011
   178G11  C0B111238  10.265   0.546   4.029
   178G11  H00W11239  10.250   0.563   3.924
   178G11  C0AL11240  10.326   0.501   4.461
   178G11  C0AK11241  10.234   0.525   4.564
   178G11  C0B011242  10.157   0.560   4.117
   178G11  C0AZ11243  10.019   0.591   4.084
   178G11  H00X11244   9.991   0.577   3.980
   178G11  C0AJ11245  10.095   0.558   4.546
   178G11  C0AH11246   9.885   0.621   4.629
   178G11  C0AE11247   9.681   0.766   4.534
   178G11  C0AD11248   9.565   0.831   4.493
   178G11  C0AY11249   9.943   0.603   4.199
   178G11  C0AB11250   9.602   0.761   4.267
   178G11  C0AC11251   9.525   0.828   4.359
   178G11  C0BM11252   9.370   0.966   4.548
   178G11  C0CM11253   8.975   0.993   4.477
   178G11  C09M11254   8.884   1.088   4.539
   178G11  C09811255   8.766   1.123   4.468
   178G11  C08R11256   8.642   1.184   4.512
   178G11  C08Q11257   8.542   1.196   4.415
   178G11  C08P11258   8.400   1.191   4.403
   178G11  C08Y11259   8.351   1.132   4.282
   178G11  C09711260   8.433   1.068   4.193
   178G11  C09611261   8.376   0.956   4.139
   178G11  C09011262   8.243   0.976   4.165
   178G11  C09511263   8.139   0.904   4.123
   178G11  C09411264   8.004   0.939   4.131
   178G11  C08J11265   7.936   1.025   4.219
   178G11  C08I11266   7.815   0.957   4.260
   178G11  C08H11267   7.785   0.996   4.398
   178G11  C08G11268   7.896   1.078   4.447
   178G11  C08F11269   7.936   1.159   4.569
   178G11  C08E11270   7.838   1.191   4.663
   178G11  C05911271   7.695   1.185   4.644
   178G11  C05811272   7.607   1.218   4.748
   178G11  C05711273   7.467   1.196   4.744
   178G11  C05611274   7.410   1.159   4.615
   178G11  C05511275   7.483   1.141   4.504
   178G11  C05411276   7.414   1.056   4.415
   178G11  C05311277   7.290   1.013   4.477
   178G11  C05211278   7.192   0.912   4.448
   178G11  C05111279   7.224   0.822   4.337
   178G11  C05U11280   7.350   0.812   4.267
   178G11  C05T11281   7.484   0.859   4.282
   178G11  C06K11282   7.539   0.859   4.145
   178G11  H00J11283   7.620   0.918   4.106
   178G11  C06L11284   7.458   0.773   4.065
   178G11  H00I11285   7.469   0.741   3.963
   178G11  C05V11286   7.344   0.744   4.142
   178G11  C06J11287   7.240   0.665   4.095
   178G11  H00K11288   7.248   0.625   3.995
   178G11  C05X11289   7.125   0.650   4.173
   178G11  C06I11290   7.014   0.563   4.144
   178G11  H00L11291   7.021   0.502   4.055
   178G11  C04Z11292   6.904   0.542   4.233
   178G11  C06H11293   6.800   0.439   4.210
   178G11  H00H11294   6.806   0.386   4.117
   178G11  C04Y11295   6.688   0.424   4.300
   178G11  C06G11296   6.597   0.321   4.271
   178G11  O00911297   6.606   0.236   4.178
   178G11  O00811298   6.493   0.308   4.355
   178G11  C04P11299   6.482   0.389   4.463
   178G11  C04J11300   6.381   0.372   4.564
   178G11  C04Q11301   6.273   0.287   4.561
   178G11  H00E11302   6.256   0.214   4.483
   178G11  C04M11303   6.173   0.279   4.664
   178G11  C04R11304   6.060   0.196   4.668
   178G11  H00F11305   6.037   0.120   4.595
   178G11  C04S11306   5.976   0.192   4.773
   178G11  H00G11307   5.885   0.133   4.775
   178G11  O00711308   5.991   0.269   4.891
   178G11  C03V11309   6.091   0.361   4.878
   178G11  C03U11310   6.118   0.425   5.000
   178G11  O00611311   6.027   0.408   5.101
   178G11  C03F11312   6.053   0.467   5.217
   178G11  C03E11313   6.166   0.545   5.244
   178G11  C03D11314   6.254   0.570   5.138
   178G11  C03C11315   6.365   0.658   5.158
   178G11  C03B11316   6.385   0.698   5.291
   178G11  C03A11317   6.501   0.773   5.319
   178G11  C03911318   6.590   0.825   5.216
   178G11  C03811319   6.682   0.912   5.294
   178G11  C03711320   6.630   0.924   5.425
   178G11  C03611321   6.680   1.008   5.517
   178G11  C02R11322   6.656   1.006   5.650
   178G11  C03511323   6.773   1.080   5.695
   178G11  C03R11324   6.857   1.123   5.595
   178G11  C03S11325   6.997   1.142   5.611
   178G11  C04911326   7.069   1.143   5.498
   178G11  C04811327   7.004   1.111   5.381
   178G11  C03P11328   6.869   1.058   5.367
   178G11  C04711329   7.094   1.122   5.274
   178G11  C04611330   7.064   1.093   5.139
   178G11  C04511331   6.955   1.039   5.076
   178G11  C03T11332   6.837   0.985   5.127
   178G11  C04411333   6.771   0.922   5.019
   178G11  C04311334   6.837   0.964   4.906
   178G11  C04211335   6.803   0.887   4.796
   178G11  C04111336   6.681   0.813   4.847
   178G11  C04011337   6.617   0.710   4.767
   178G11  C03Z11338   6.509   0.631   4.811
   178G11  C04H11339   6.487   0.546   4.699
   178G11  C04G11340   6.575   0.568   4.601
   178G11  C03N11341   6.421   0.624   4.928
   178G11  C03Y11342   6.318   0.527   4.911
   178G11  C03X11343   6.301   0.449   4.791
   178G11  C04F11344   6.667   0.658   4.643
   178G11  C04E11345   6.775   0.682   4.554
   178G11  C04O11346   6.785   0.605   4.435
   178G11  C04D11347   6.877   0.783   4.571
   178G11  C04V11348   6.984   0.792   4.478
   178G11  C04W11349   6.997   0.715   4.364
   178G11  C04C11350   6.889   0.879   4.676
   178G11  C04L11351   7.016   0.951   4.645
   178G11  C04U11352   7.086   1.044   4.729
   178G11  C05Q11353   7.210   1.094   4.708
   178G11  C05P11354   7.257   1.149   4.829
   178G11  C04T11355   7.169   1.123   4.930
   178G11  C04B11356   7.064   1.067   4.865
   178G11  C03M11357   6.664   0.834   4.989
   178G11  C04A11358   6.955   1.023   4.939
   178G11  C05H11359   7.171   1.138   5.068
   178G11  C05G11360   7.269   1.187   5.153
   178G11  C05F11361   7.396   1.226   5.111
   178G11  C05E11362   7.509   1.251   5.191
   178G11  C05L11363   7.535   1.255   5.333
   178G11  C05K11364   7.437   1.220   5.429
   178G11  C05J11365   7.299   1.184   5.410
   178G11  C06611366   7.484   1.226   5.563
   178G11  C06511367   7.623   1.266   5.594
   178G11  C06411368   7.714   1.296   5.492
   178G11  C06N11369   7.668   1.253   5.728
   178G11  C06911370   7.585   1.207   5.828
   178G11  C06P11371   7.635   1.203   5.961
   178G11  C06R11372   7.551   1.162   6.065
   178G11  C06B11373   7.417   1.133   6.039
   178G11  C06S11374   7.339   1.088   6.140
   178G11  C02G11375   7.201   1.055   6.114
   178G11  C02F11376   7.119   1.009   6.214
   178G11  C02711377   7.171   0.994   6.345
   178G11  C02611378   7.088   0.939   6.441
   178G11  C00E11379   7.139   0.923   6.565
   178G11  C00D11380   7.061   0.861   6.659
   178G11  C00C11381   7.116   0.844   6.785
   178G11  C00B11382   7.245   0.861   6.818
   178G11  C01511383   7.325   0.917   6.719
   178G11  C07F11384   7.453   0.937   6.747
   178G11  C07E11385   7.538   0.990   6.646
   178G11  C06W11386   7.490   1.028   6.526
   178G11  C06V11387   7.359   1.007   6.502
   178G11  C06X11388   7.570   1.075   6.426
   178G11  C07B11389   7.704   1.093   6.448
   178G11  C07C11390   7.755   1.053   6.572
   178G11  C0FU11391   7.892   1.065   6.590
   178G11  C0F711392   7.949   1.016   6.709
   178G11  C0F611393   8.086   1.024   6.723
   178G11  C0F811394   8.144   0.962   6.834
   178G11  C0F911395   8.282   0.957   6.844
   178G11  C0FA11396   8.340   0.893   6.951
   178G11  C0FZ11397   8.258   0.834   7.048
   178G11  C0G011398   8.317   0.764   7.153
   178G11  C0GD11399   8.459   0.732   7.154
   178G11  C0FC11400   8.539   0.794   7.060
   178G11  C0GH11401   8.681   0.780   7.063
   178G11  C0EY11402   8.757   0.862   6.987
   178G11  C0EX11403   8.896   0.879   7.008
   178G11  C0EW11404   8.964   0.988   6.949
   178G11  C0FR11405   9.109   1.000   6.968
   178G11  H01D11406   9.173   1.074   6.921
   178G11  C0FS11407   9.178   0.912   7.050
   178G11  H01C11408   9.283   0.919   7.074
   178G11  C0GJ11409   9.109   0.811   7.113
   178G11  H01N11410   9.161   0.747   7.182
   178G11  C0EV11411   8.897   1.072   6.867
   178G11  C0FT11412   8.957   1.186   6.806
   178G11  H01E11413   9.053   1.223   6.837
   178G11  C0EU11414   8.767   1.039   6.823
   178G11  C0ET11415   8.707   1.103   6.715
   178G11  C0EI11416   8.575   1.095   6.677
   178G11  C0F111417   8.499   1.012   6.762
   178G11  C0F011418   8.557   0.940   6.869
   178G11  C0EH11419   8.526   1.153   6.557
   178G11  C0EG11420   8.606   1.232   6.471
   178G11  C0EJ11421   8.388   1.142   6.540
   178G11  C0F311422   8.309   1.076   6.636
   178G11  C0EK11423   8.331   1.195   6.422
   178G11  C0EL11424   8.413   1.257   6.319
   178G11  C0EM11425   8.341   1.295   6.201
   178G11  C0EN11426   8.206   1.272   6.194
   178G11  C07I11427   8.151   1.306   6.073
   178G11  C07411428   8.016   1.280   6.043
   178G11  C07311429   7.983   1.296   5.913
   178G11  C07211430   7.850   1.269   5.889
   178G11  C07511431   7.941   1.226   6.143
   178G11  C07611432   7.996   1.205   6.268
   178G11  C07811433   7.917   1.158   6.368
   178G11  C07G11434   7.809   1.210   6.114
   178G11  C07011435   7.729   1.165   6.219
   178G11  C07Z11436   8.252   1.348   5.989
   178G11  C07711437   8.126   1.220   6.296
   178G11  C0EO11438   8.189   1.184   6.412
   178G11  C0F411439   8.111   1.125   6.512
   178G11  C0EQ11440   8.775   1.201   6.647
   178G11  C0FQ11441   8.970   0.791   7.094
   178G11  C0GI11442   8.887   0.696   7.156
   178G11  H01L11443   8.936   0.625   7.220
   178G11  C0EZ11444   8.690   0.949   6.899
   178G11  C0GG11445   8.747   0.694   7.149
   178G11  C0GF11446   8.662   0.615   7.231
   178G11  H01M11447   8.701   0.544   7.303
   178G11  C0GE11448   8.529   0.646   7.245
   178G11  H01K11449   8.472   0.585   7.313
   178G11  O00J11450   8.241   0.706   7.256
   178G11  C0GA11451   8.104   0.717   7.246
   178G11  C0G911452   8.020   0.659   7.348
   178G11  H01H11453   8.059   0.599   7.429
   178G11  C0G811454   7.882   0.678   7.348
   178G11  C0G711455   7.796   0.634   7.453
   178G11  H01I11456   7.835   0.577   7.536
   178G11  O00I11457   7.664   0.672   7.465
   178G11  C0G611458   7.613   0.726   7.349
   178G11  H01J11459   7.509   0.750   7.362
   178G11  C02D11460   7.684   0.754   7.229
   178G11  C02C11461   7.625   0.809   7.116
   178G11  C01711462   7.489   0.796   7.087
   178G11  C01611463   7.428   0.847   6.973
   178G11  O00111464   7.405   0.733   7.179
   178G11  C01811465   7.267   0.702   7.157
   178G11  C00911466   7.212   0.739   7.034
   178G11  C00811467   7.072   0.719   6.995
   178G11  C00711468   6.966   0.632   7.036
   178G11  C00611469   6.964   0.561   7.158
   178G11  C00511470   6.856   0.480   7.205
   178G11  C00411471   6.744   0.432   7.124
   178G11  C00311472   6.686   0.467   6.989
   178G11  C00211473   6.576   0.391   6.936
   178G11  C00P11474   6.525   0.413   6.803
   178G11  C00O11475   6.422   0.343   6.747
   178G11  C00N11476   6.375   0.363   6.619
   178G11  C01011477   6.281   0.275   6.561
   178G11  C01111478   6.242   0.289   6.427
   178G11  C01Q11479   6.150   0.203   6.372
   178G11  C01U11480   6.098   0.092   6.450
   178G11  C01211481   6.144   0.081   6.584
   178G11  H00011482   6.112  -0.002   6.644
   178G11  C01V11483   5.998   0.009   6.385
   178G11  H00711484   5.964  -0.074   6.444
   178G11  O00511485   5.949   0.030   6.260
   178G11  C01W11486   6.014   0.126   6.189
   178G11  C03111487   5.969   0.133   6.060
   178G11  C03211488   6.039   0.218   5.969
   178G11  H00A11489   5.997   0.211   5.869
   178G11  C03311490   6.142   0.299   6.019
   178G11  H00B11491   6.200   0.351   5.944
   178G11  C01O11492   6.170   0.308   6.158
   178G11  C01N11493   6.239   0.413   6.215
   178G11  C01M11494   6.288   0.534   6.138
   178G11  C01L11495   6.301   0.605   6.001
   178G11  C01K11496   6.387   0.715   6.021
   178G11  C01Y11497   6.456   0.783   5.921
   178G11  C02I11498   6.413   0.764   5.795
   178G11  C02N11499   6.486   0.823   5.694
   178G11  C02M11500   6.448   0.786   5.559
   178G11  C02L11501   6.334   0.707   5.527
   178G11  C02K11502   6.255   0.663   5.634
   178G11  C02U11503   6.131   0.606   5.604
   178G11  C02V11504   6.094   0.574   5.474
   178G11  C03H11505   5.972   0.514   5.436
   178G11  H00C11506   5.886   0.492   5.497
   178G11  C02W11507   6.048   0.568   5.711
   178G11  C02X11508   6.103   0.558   5.835
   178G11  C02Y11509   5.990   0.528   5.913
   178G11  H00811510   5.982   0.514   6.020
   178G11  C02Z11511   5.868   0.525   5.827
   178G11  O00411512   5.749   0.520   5.858
   178G11  O00311513   5.918   0.539   5.707
   178G11  C02J11514   6.302   0.677   5.766
   178G11  C01Z11515   6.564   0.856   5.959
   178G11  C02011516   6.608   0.852   6.093
   178G11  C01I11517   6.547   0.777   6.183
   178G11  C01H11518   6.587   0.762   6.309
   178G11  C00K11519   6.517   0.676   6.396
   178G11  C01S11520   6.412   0.596   6.349
   178G11  C01411521   6.369   0.488   6.416
   178G11  C00J11522   6.565   0.655   6.524
   178G11  C00I11523   6.685   0.712   6.567
   178G11  C00H11524   6.751   0.798   6.479
   178G11  C00G11525   6.877   0.841   6.505
   178G11  C00S11526   6.736   0.692   6.690
   178G11  C00T11527   6.850   0.756   6.724
   178G11  C00U11528   6.903   0.727   6.845
   178G11  C00R11529   6.682   0.598   6.777
   178G11  C00L11530   6.520   0.549   6.599
   178G11  C02811531   6.702   0.821   6.353
   178G11  C02311532   6.775   0.893   6.260
   178G11  C02411533   6.906   0.933   6.286
   178G11  C02111534   6.727   0.909   6.132
   178G11  C02211535   6.802   0.977   6.036
   178G11  C02H11536   6.934   1.006   6.063
   178G11  C03011537   7.018   1.056   5.966
   178G11  C03411538   6.960   1.083   5.843
   178G11  C02P11539   6.750   0.994   5.908
   178G11  C02B11540   6.630   0.933   5.868
   178G11  C01J11541   6.420   0.728   6.152
   178G11  C01X11542   6.233   0.605   5.873
   178G11  C01T11543   6.373   0.614   6.218
   178G11  H00911544   5.888   0.071   6.024
   178G11  C01P11545   6.108   0.220   6.243
   178G11  C01R11546   6.280   0.401   6.348
   178G11  C00Z11547   6.233   0.170   6.639
   178G11  O00011548   6.270   0.153   6.771
   178G11  C00M11549   6.423   0.468   6.543
   178G11  C00Y11550   6.370   0.233   6.824
   178G11  C01311551   6.417   0.205   6.953
   178G11  H00111552   6.372   0.127   7.012
   178G11  C00Q11553   6.573   0.522   6.729
   178G11  C00111554   6.521   0.284   7.009
   178G11  C00011555   6.570   0.261   7.134
   178G11  H00611556   6.534   0.182   7.199
   178G11  C00W11557   6.738   0.566   6.902
   178G11  C01G11558   6.676   0.329   7.190
   178G11  H00511559   6.701   0.298   7.291
   178G11  C01C11560   6.882   0.451   7.342
   178G11  H00211561   6.839   0.400   7.427
   178G11  C01B11562   7.008   0.519   7.371
   178G11  C01D11563   7.080   0.511   7.492
   178G11  H00311564   7.044   0.471   7.586
   178G11  C01E11565   7.204   0.562   7.490
   178G11  H00411566   7.258   0.550   7.582
   178G11  O00211567   7.269   0.622   7.382
   178G11  C01A11568   7.062   0.577   7.257
   178G11  C00V11569   6.859   0.634   6.940
   178G11  C01911570   7.198   0.640   7.262
   178G11  C02E11571   7.705   0.858   7.008
   178G11  C0FX11572   7.843   0.854   7.020
   178G11  C0FW11573   7.924   0.906   6.922
   178G11  C0GB11574   7.905   0.792   7.128
   178G11  C0G311575   7.645   0.909   6.892
   178G11  C07H11576   7.728   0.957   6.792
   178G11  C0GC11577   7.825   0.739   7.233
   178G11  C0G211578   8.045   0.790   7.141
   178G11  C0G111579   8.121   0.846   7.045
   178G11  C0FB11580   8.476   0.867   6.958
   178G11  C0F211581   8.360   1.014   6.748
   178G11  C0FY11582   8.064   0.911   6.936
   178G11  C0F511583   8.170   1.076   6.625
   178G11  C0FV11584   7.867   0.957   6.809
   178G11  C07911585   7.974   1.120   6.493
   178G11  C07A11586   7.785   1.139   6.342
   178G11  C06Y11587   7.518   1.105   6.301
   178G11  C07D11588   7.673   1.000   6.674
   178G11  C01F11589   7.508   0.903   6.874
   178G11  C00A11590   7.294   0.816   6.945
   178G11  C00X11591   7.032   0.776   6.874
   178G11  C00F11592   6.935   0.813   6.628
   178G11  C02911593   7.272   0.952   6.597
   178G11  C02511594   6.953   0.908   6.413
   178G11  C06U11595   7.304   1.023   6.373
   178G11  C02A11596   6.986   0.980   6.187
   178G11  C05Y11597   7.152   1.076   5.986
   178G11  C05Z11598   7.233   1.126   5.883
   178G11  C06011599   7.177   1.146   5.757
   178G11  C06211600   7.261   1.169   5.648
   178G11  C06T11601   7.386   1.072   6.269
   178G11  C06A11602   7.367   1.148   5.908
   178G11  C06Z11603   7.599   1.142   6.197
   178G11  C06Q11604   7.764   1.235   5.988
   178G11  C06811605   7.449   1.182   5.801
   178G11  C06711606   7.400   1.192   5.669
   178G11  C06311607   7.675   1.289   5.360
   178G11  C06C11608   7.778   1.312   5.261
   178G11  C06D11609   7.750   1.309   5.130
   178G11  C06E11610   7.831   1.305   5.020
   178G11  C07Q11611   7.967   1.321   5.047
   178G11  C07P11612   8.005   1.336   5.183
   178G11  C07T11613   8.137   1.357   5.213
   178G11  C07U11614   8.177   1.374   5.347
   178G11  C07V11615   8.308   1.380   5.376
   178G11  C08411616   8.401   1.376   5.270
   178G11  C08C11617   8.365   1.359   5.142
   178G11  C08B11618   8.457   1.346   5.041
   178G11  C08A11619   8.407   1.329   4.909
   178G11  C08911620   8.275   1.321   4.874
   178G11  C08811621   8.243   1.278   4.740
   178G11  C08711622   8.110   1.255   4.713
   178G11  C08611623   8.018   1.272   4.813
   178G11  C08X11624   8.340   1.254   4.638
   178G11  C08T11625   8.481   1.254   4.682
   178G11  C08D11626   8.187   1.339   4.973
   178G11  C08U11627   8.503   1.305   4.813
   178G11  C08V11628   8.637   1.287   4.848
   178G11  C0CY11629   8.687   1.314   4.975
   178G11  C0CX11630   8.817   1.274   5.000
   178G11  C0CW11631   8.862   1.286   5.130
   178G11  C0CV11632   8.773   1.328   5.228
   178G11  C0D411633   8.636   1.339   5.206
   178G11  C0CU11634   8.820   1.336   5.363
   178G11  C0CT11635   8.949   1.309   5.396
   178G11  C0CS11636   9.031   1.263   5.296
   178G11  C0D611637   8.719   1.360   5.458
   178G11  C0EC11638   8.582   1.378   5.431
   178G11  C07X11639   8.494   1.407   5.534
   178G11  C0DL11640   8.760   1.359   5.588
   178G11  C0DK11641   8.674   1.399   5.690
   178G11  C0DN11642   8.747   1.406   5.802
   178G11  C0D811643   8.893   1.354   5.635
   178G11  C08W11644   8.711   1.223   4.746
   178G11  C0CQ11645   8.852   1.194   4.769
   178G11  C09311646   8.593   1.338   5.076
   178G11  C09211647   8.539   1.367   5.304
   178G11  C08511648   8.232   1.360   5.109
   178G11  C07S11649   8.056   1.315   4.942
   178G11  C06F11650   7.791   1.278   4.886
   178G11  C07O11651   7.909   1.326   5.291
   178G11  C07N11652   7.948   1.333   5.422
   178G11  C05D11653   7.612   1.289   5.103
   178G11  C05C11654   7.576   1.277   4.973
   178G11  C05N11655   7.443   1.241   4.977
   178G11  C05M11656   7.231   1.166   5.284
   178G11  C05I11657   7.210   1.171   5.519
   178G11  C06111658   7.044   1.127   5.738
   178G11  C02Q11659   6.826   1.056   5.823
   178G11  C02O11660   6.588   0.918   5.735
   178G11  C03Q11661   6.798   1.076   5.484
   178G11  C03O11662   6.804   0.985   5.262
   178G11  C03L11663   6.567   0.782   5.081
   178G11  C02S11664   6.524   0.833   5.445
   178G11  C02T11665   6.302   0.667   5.395
   178G11  C03K11666   6.452   0.686   5.051
   178G11  C03I11667   6.190   0.592   5.372
   178G11  C03G11668   5.953   0.453   5.310
   178G11  H00D11669   5.867   0.391   5.286
   178G11  C03J11670   6.232   0.503   5.018
   178G11  C03W11671   6.193   0.363   4.774
   178G11  C04I11672   6.383   0.458   4.679
   178G11  C04K11673   6.574   0.486   4.494
   178G11  C04N11674   6.681   0.510   4.410
   178G11  C04X11675   6.892   0.623   4.346
   178G11  C05011676   7.118   0.730   4.291
   178G11  C05W11677   7.074   0.889   4.525
   178G11  C05S11678   7.520   0.966   4.368
   178G11  C05R11679   7.292   1.086   4.599
   178G11  C05O11680   7.385   1.199   4.855
   178G11  C05B11681   7.662   1.256   4.863
   178G11  C05A11682   7.621   1.124   4.528
   178G11  C07R11683   7.882   1.244   4.787
   178G11  C08N11684   8.071   1.197   4.589
   178G11  C08M11685   8.169   1.176   4.484
   178G11  C08L11686   8.131   1.112   4.363
   178G11  C09111687   7.646   1.025   4.426
   178G11  C09K11688   7.820   0.819   4.208
   178G11  H00M11689   7.753   0.736   4.224
   178G11  C08K11690   7.992   1.080   4.340
   178G11  C09J11691   7.921   0.825   4.108
   178G11  C09I11692   8.007   0.727   4.056
   178G11  C09L11693   7.981   0.595   4.015
   178G11  H00N11694   7.884   0.547   4.020
   178G11  C09Q11695   8.090   0.530   3.971
   178G11  H00O11696   8.070   0.426   3.948
   178G11  O00B11697   8.216   0.583   3.949
   178G11  C09G11698   8.248   0.700   4.003
   178G11  C09F11699   8.386   0.741   4.001
   178G11  O00A11700   8.468   0.650   3.928
   178G11  C09P11701   8.600   0.683   3.920
   178G11  H00P11702   8.642   0.690   3.821
   178G11  C09O11703   8.668   0.742   4.033
   178G11  C09D11704   8.588   0.845   4.095
   178G11  C09C11705   8.635   0.958   4.182
   178G11  C09N11706   8.760   0.988   4.251
   178G11  C09T11707   8.844   0.878   4.281
   178G11  C09S11708   8.863   0.766   4.187
   178G11  C0CP11709   8.984   0.713   4.233
   178G11  C0CN11710   9.028   0.769   4.353
   178G11  C0CO11711   9.134   0.703   4.422
   178G11  H01411712   9.168   0.748   4.514
   178G11  C0CZ11713   9.196   0.596   4.359
   178G11  H01511714   9.283   0.550   4.403
   178G11  C0D011715   9.155   0.551   4.228
   178G11  C0G511716   9.228   0.461   4.150
   178G11  H01F11717   9.317   0.412   4.188
   178G11  C0G411718   9.182   0.419   4.033
   178G11  H01G11719   9.247   0.365   3.965
   178G11  O00H11720   9.062   0.457   3.969
   178G11  C0D211721   8.996   0.554   4.040
   178G11  C09V11722   8.872   0.604   4.005
   178G11  H00Q11723   8.840   0.567   3.908
   178G11  C0D111724   9.041   0.604   4.166
   178G11  C09R11725   8.800   0.707   4.074
   178G11  C09H11726   8.140   0.777   4.059
   178G11  C09E11727   8.444   0.848   4.073
   178G11  C09B11728   8.563   1.068   4.210
   178G11  C08Z11729   8.230   1.079   4.270
   178G11  C08O11730   8.303   1.212   4.506
   178G11  C09A11731   8.620   1.161   4.301
   178G11  C08S11732   8.614   1.207   4.642
   178G11  C09911733   8.744   1.111   4.329
   178G11  C09U11734   8.950   0.888   4.376
   178G11  C0BO11735   9.285   1.017   4.652
   178G11  C0CL11736   8.927   1.127   4.671
   178G11  C0D311737   8.897   1.226   4.901
   178G11  C0D511738   8.989   1.258   5.162
   178G11  C0BR11739   9.236   1.080   4.874
   178G11  C0BQ11740   9.322   1.021   4.781
   178G11  C0BL11741   9.489   0.903   4.588
   178G11  C0AF11742   9.707   0.759   4.671
   178G11  C0BH11743   9.598   0.912   4.993
   178G11  C0BG11744   9.644   0.925   5.121
   178G11  C0BD11745   9.834   0.781   5.071
   178G11  C0AG11746   9.809   0.691   4.719
   178G11  C0AI11747  10.012   0.581   4.660
   178G11  C0AV11748  10.271   0.532   4.699
   178G11  C0BB11749  10.135   0.584   5.041
   178G11  O00C11750  10.452   0.561   4.867
   178G11  C0BC11751  10.210   0.610   5.154
   178G11  C0B911752   9.958   0.724   5.106
   178G11  O00E11753  10.004   0.877   5.434
   178G11  C0CA11754   9.945   0.961   5.521
   178G11  O00F11755  10.006   0.989   5.623
   178G11  C0BF11756   9.765   0.864   5.155
   178G11  C0C511757   9.816   1.003   5.484
   178G11  C0C411758   9.745   1.086   5.578
   178G11  H01111759   9.795   1.118   5.668
   178G11  C0C811760   9.567   0.998   5.207
   178G11  C0C211761   9.607   1.121   5.548
   178G11  C0C311762   9.526   1.198   5.627
   178G11  C0DY11763   9.563   1.246   5.755
   178G11  H01611764   9.650   1.227   5.815
   178G11  C0DX11765   9.443   1.306   5.805
   178G11  C0DW11766   9.443   1.344   5.941
   178G11  C0BY11767   9.363   1.120   5.266
   178G11  C0DB11768   9.394   1.238   5.603
   178G11  C0CC11769   9.158   1.227   5.334
   178G11  C0D711770   8.992   1.319   5.535
   178G11  C0DZ11771   9.329   1.293   5.715
   178G11  C0DM11772   8.884   1.373   5.776
   178G11  C0DQ11773   9.181   1.339   5.971
   178G11  C0DV11774   9.319   1.332   6.012
   178G11  C0E011775   9.551   1.298   6.029
   178G11  C0FO11776   9.539   1.341   6.375
   178G11  C0E311777   9.667   1.371   6.069
   178G11  H01711778   9.719   1.446   6.011
   178G11  C0GV11779   9.647   1.407   6.420
   178G11  C0ES11780   9.406   1.369   6.426
   178G11  C0GQ11781   9.523   1.555   6.720
   178G11  C0FJ11782   9.164   1.534   6.816
   178G11  C0ED11783   9.153   1.419   6.552
   178G11  C0ER11784   8.894   1.248   6.698
   178G11  C0EP11785   8.738   1.261   6.528
   178G11  C0E611786   9.041   1.359   6.332
   178G11  C0DE11787   8.834   1.395   6.101
   178G11  C0EA11788   8.554   1.275   6.345
   178G11  C0DF11789   8.713   1.442   6.049
   178G11  C08011790   8.367   1.352   6.073
   178G11  C0DO11791   8.663   1.427   5.913
   178G11  C0DJ11792   8.533   1.409   5.665
   178G11  C07K11793   8.213   1.358   5.847
   178G11  C07W11794   8.354   1.397   5.508
   178G11  C08311795   8.083   1.355   5.451
   178G11  C07J11796   8.079   1.335   5.820
   178G11  C06O11797   7.804   1.278   5.756
   178G11  C06M11798   7.852   1.314   5.520
   188G11  C07111799   6.542   4.250  11.004
   188G11  C07L11800   6.542   4.208  11.139
   188G11  C07M11801   6.514   4.298  11.240
   188G11  C07Y11802   6.529   4.262  11.375
   188G11  C08111803   6.563   4.127  11.406
   188G11  C08211804   6.584   4.098  11.544
   188G11  C0DI11805   6.644   3.976  11.602
   188G11  C0DH11806   6.668   3.846  11.556
   188G11  C0DG11807   6.750   3.778  11.653
   188G11  C0E911808   6.731   3.641  11.693
   188G11  C0E811809   6.736   3.636  11.840
   188G11  C0E711810   6.725   3.526  11.940
   188G11  C0EB11811   6.714   3.388  11.890
   188G11  C0EF11812   6.670   3.266  11.964
   188G11  C0EE11813   6.614   3.254  12.092
   188G11  C0FD11814   6.506   3.163  12.109
   188G11  C0FE11815   6.433   3.102  12.004
   188G11  H01B11816   6.446   3.132  11.901
   188G11  C0FF11817   6.328   3.019  12.030
   188G11  H01A11818   6.258   2.978  11.958
   188G11  C0FG11819   6.313   2.965  12.156
   188G11  H01811820   6.239   2.889  12.174
   188G11  C0FH11821   6.373   3.030  12.268
   188G11  C0FI11822   6.340   3.004  12.402
   188G11  H01911823   6.267   2.929  12.429
   188G11  O00K11824   6.409   3.052  12.507
   188G11  C0FL11825   6.510   3.141  12.478
   188G11  C0FK11826   6.544   3.185  12.346
   188G11  C0FM11827   6.650   3.278  12.327
   188G11  C0FN11828   6.723   3.328  12.438
   188G11  C0FP11829   6.684   3.288  12.567
   188G11  C0GO11830   6.740   3.342  12.679
   188G11  C0GN11831   6.687   3.330  12.809
   188G11  C0GR11832   6.580   3.238  12.825
   188G11  C0GS11833   6.518   3.218  12.952
   188G11  H01Q11834   6.440   3.144  12.945
   188G11  C0GT11835   6.567   3.292  13.058
   188G11  H01O11836   6.518   3.275  13.154
   188G11  C0GU11837   6.676   3.380  13.045
   188G11  H01P11838   6.703   3.437  13.133
   188G11  O00L11839   6.530   3.179  12.713
   188G11  C0GM11840   6.738   3.405  12.920
   188G11  C0GL11841   6.837   3.500  12.888
   188G11  H01R11842   6.872   3.561  12.970
   188G11  C0GK11843   6.894   3.508  12.759
   188G11  C0GP11844   6.973   3.611  12.692
   188G11  C0E211845   7.000   3.563  12.561
   188G11  C0E111846   6.993   3.686  12.482
   188G11  C0DU11847   6.930   3.708  12.358
   188G11  C0DT11848   6.887   3.613  12.263
   188G11  C0E411849   6.836   3.485  12.296
   188G11  C0E511850   6.764   3.439  12.188
   188G11  C0DS11851   6.818   3.653  12.143
   188G11  C0DR11852   6.795   3.791  12.131
   188G11  C0DD11853   6.734   3.849  12.021
   188G11  C0DC11854   6.715   3.989  12.058
   188G11  C0DP11855   6.766   4.012  12.194
   188G11  C0DA11856   6.754   4.138  12.269
   188G11  C0D911857   6.713   4.278  12.230
   188G11  C0CR11858   6.703   4.380  12.327
   188G11  C0C011859   6.738   4.359  12.459
   188G11  C0BZ11860   6.725   4.452  12.565
   188G11  C0C111861   6.743   4.417  12.701
   188G11  C0C711862   6.724   4.510  12.803
   188G11  C0C611863   6.754   4.478  12.937
   188G11  C0C911864   6.728   4.571  13.033
   188G11  C0B811865   6.759   4.537  13.170
   188G11  C0B711866   6.733   4.628  13.274
   188G11  C0B611867   6.776   4.630  13.410
   188G11  C0B511868   6.902   4.567  13.454
   188G11  H00Z11869   6.952   4.503  13.383
   188G11  C0B411870   6.953   4.642  13.565
   188G11  H01011871   7.054   4.643  13.604
   188G11  C0B311872   6.855   4.741  13.603
   188G11  C0AP11873   6.858   4.886  13.620
   188G11  C0AQ11874   6.757   4.939  13.538
   188G11  C0AR11875   6.769   5.073  13.491
   188G11  C0AS11876   6.697   5.095  13.377
   188G11  C0AT11877   6.652   4.996  13.291
   188G11  C0BA11878   6.660   4.866  13.328
   188G11  C0AU11879   6.633   5.025  13.157
   188G11  C0BE11880   6.632   4.923  13.063
   188G11  C0BI11881   6.635   4.961  12.926
   188G11  C0BJ11882   6.627   5.095  12.884
   188G11  C0BK11883   6.628   5.136  12.753
   188G11  C0BW11884   6.632   5.038  12.655
   188G11  C0BV11885   6.627   4.899  12.695
   188G11  C0BU11886   6.636   4.804  12.597
   188G11  C0BX11887   6.672   4.673  12.635
   188G11  C0BT11888   6.629   4.839  12.464
   188G11  C0CD11889   6.629   4.741  12.367
   188G11  C0CB11890   6.657   4.607  12.398
   188G11  C0CE11891   6.594   4.776  12.238
   188G11  C0CK11892   6.589   4.908  12.195
   188G11  C0BS11893   6.616   5.010  12.286
   188G11  C0CJ11894   6.625   5.141  12.247
   188G11  C0BP11895   6.639   5.242  12.342
   188G11  C0CI11896   6.673   5.369  12.306
   188G11  C0CH11897   6.669   5.464  12.413
   188G11  H01211898   6.691   5.566  12.385
   188G11  C0BN11899   6.641   5.434  12.547
   188G11  C0CG11900   6.640   5.533  12.644
   188G11  C0CF11901   6.632   5.670  12.608
   188G11  H01311902   6.621   5.697  12.504
   188G11  O00G11903   6.627   5.764  12.703
   188G11  C0AA11904   6.666   5.734  12.826
   188G11  C0A911905   6.692   5.838  12.915
   188G11  H00U11906   6.689   5.944  12.895
   188G11  C0A811907   6.739   5.806  13.039
   188G11  H00V11908   6.759   5.895  13.097
   188G11  C0A711909   6.759   5.673  13.088
   188G11  C0A611910   6.710   5.566  13.006
   188G11  C0A511911   6.705   5.432  13.041
   188G11  C0A411912   6.716   5.389  13.174
   188G11  C0A311913   6.776   5.439  13.298
   188G11  C0A211914   6.845   5.558  13.309
   188G11  C0A111915   6.941   5.587  13.407
   188G11  C0A011916   7.014   5.517  13.511
   188G11  C09Z11917   7.115   5.586  13.574
   188G11  C09Y11918   7.191   5.525  13.675
   188G11  H00Y11919   7.275   5.579  13.715
   188G11  C09X11920   7.164   5.398  13.715
   188G11  C09W11921   7.238   5.349  13.822
   188G11  H00R11922   7.303   5.417  13.876
   188G11  C0AX11923   7.221   5.228  13.873
   188G11  H00S11924   7.275   5.192  13.960
   188G11  C0AW11925   7.131   5.142  13.806
   188G11  H00T11926   7.113   5.040  13.839
   188G11  C0AN11927   7.049   5.188  13.696
   188G11  C0AO11928   6.956   5.104  13.631
   188G11  C0AM11929   7.063   5.326  13.654
   188G11  C0B211930   7.156   5.727  13.550
   188G11  O00D11931   7.241   5.783  13.610
   188G11  C0B111932   7.084   5.796  13.445
   188G11  H00W11933   7.128   5.889  13.410
   188G11  C0AL11934   6.985   5.385  13.550
   188G11  C0AK11935   6.891   5.296  13.492
   188G11  C0B011936   6.984   5.722  13.372
   188G11  C0AZ11937   6.920   5.771  13.258
   188G11  H00X11938   6.949   5.867  13.216
   188G11  C0AJ11939   6.800   5.326  13.385
   188G11  C0AH11940   6.671   5.257  13.205
   188G11  C0AE11941   6.667   5.332  12.950
   188G11  C0AD11942   6.657   5.361  12.816
   188G11  C0AY11943   6.822   5.669  13.216
   188G11  C0AB11944   6.674   5.596  12.872
   188G11  C0AC11945   6.654   5.497  12.777
   188G11  C0BM11946   6.636   5.302  12.579
   188G11  C0CM11947   6.710   5.394  12.175
   188G11  C09M11948   6.645   5.314  12.074
   188G11  C09811949   6.596   5.387  11.959
   188G11  C08R11950   6.537   5.347  11.833
   188G11  C08Q11951   6.503   5.455  11.742
   188G11  C08P11952   6.494   5.469  11.599
   188G11  C08Y11953   6.537   5.596  11.554
   188G11  C09711954   6.600   5.691  11.641
   188G11  C09611955   6.706   5.751  11.572
   188G11  C09011956   6.672   5.739  11.439
   188G11  C09511957   6.754   5.775  11.329
   188G11  C09411958   6.705   5.782  11.193
   188G11  C08J11959   6.604   5.698  11.138
   188G11  C08I11960   6.654   5.667  11.011
   188G11  C08H11961   6.590   5.546  10.966
   188G11  C08G11962   6.540   5.481  11.081
   188G11  C08F11963   6.484   5.353  11.116
   188G11  C08E11964   6.466   5.256  11.013
   188G11  C05911965   6.444   5.287  10.872
   188G11  C05811966   6.428   5.185  10.780
   188G11  C05711967   6.441   5.203  10.638
   188G11  C05611968   6.456   5.336  10.592
   188G11  C05511969   6.423   5.441  10.670
   188G11  C05411970   6.489   5.552  10.608
   188G11  C05311971   6.547   5.515  10.482
   188G11  C05211972   6.643   5.580  10.397
   188G11  C05111973   6.697   5.714  10.431
   188G11  C05U11974   6.676   5.783  10.560
   188G11  C05T11975   6.617   5.745  10.683
   188G11  C06K11976   6.635   5.860  10.771
   188G11  H00J11977   6.611   5.859  10.876
   188G11  C06L11978   6.716   5.960  10.704
   188G11  H00I11979   6.768   6.040  10.755
   188G11  C05V11980   6.732   5.913  10.574
   188G11  C06J11981   6.804   5.981  10.482
   188G11  H00K11982   6.853   6.077  10.490
   188G11  C05X11983   6.838   5.912  10.363
   188G11  C06I11984   6.929   5.964  10.272
   188G11  H00L11985   6.985   6.051  10.301
   188G11  C04Z11986   6.973   5.896  10.157
   188G11  C06H11987   7.071   5.955  10.070
   188G11  H00H11988   7.111   6.054  10.087
   188G11  C04Y11989   7.115   5.882   9.955
   188G11  C06G11990   7.229   5.937   9.872
   188G11  O00911991   7.275   6.049   9.879
   188G11  O00811992   7.285   5.855   9.779
   188G11  C04P11993   7.233   5.729   9.759
   188G11  C04J11994   7.293   5.638   9.662
   188G11  C04Q11995   7.404   5.661   9.575
   188G11  H00E11996   7.458   5.754   9.585
   188G11  C04M11997   7.435   5.575   9.465
   188G11  C04R11998   7.540   5.603   9.370
   188G11  H00F11999   7.589   5.699   9.376
   188G11  C04S12000   7.567   5.509   9.277
   188G11  H00G12001   7.644   5.535   9.206
   188G11  O00712002   7.507   5.385   9.268
   188G11  C03V12003   7.405   5.360   9.355
   188G11  C03U12004   7.352   5.232   9.352
   188G11  O00612005   7.402   5.145   9.253
   188G11  C03F12006   7.353   5.019   9.253
   188G11  C03E12007   7.267   4.966   9.352
   188G11  C03D12008   7.218   5.054   9.449
   188G11  C03C12009   7.132   5.008   9.548
   188G11  C03B12010   7.105   4.870   9.539
   188G11  C03A12011   7.027   4.817   9.650
   188G11  C03912012   6.964   4.903   9.749
   188G11  C03812013   6.890   4.803   9.834
   188G11  C03712014   6.916   4.678   9.772
   188G11  C03612015   6.860   4.570   9.821
   188G11  C02R12016   6.893   4.438   9.795
   188G11  C03512017   6.828   4.365   9.902
   188G11  C03R12018   6.762   4.449   9.987
   188G11  C03S12019   6.739   4.415  10.122
   188G11  C04912020   6.710   4.514  10.211
   188G11  C04812021   6.721   4.648  10.155
   188G11  C03P12022   6.780   4.686  10.023
   188G11  C04712023   6.672   4.740  10.245
   188G11  C04612024   6.663   4.873  10.221
   188G11  C04512025   6.704   4.957  10.114
   188G11  C03T12026   6.782   4.936  10.001
   188G11  C04412027   6.815   5.054   9.939
   188G11  C04312028   6.738   5.150  10.005
   188G11  C04212029   6.795   5.280   9.996
   188G11  C04112030   6.897   5.251   9.896
   188G11  C04012031   6.974   5.356   9.839
   188G11  C03Z12032   7.069   5.340   9.732
   188G11  C04H12033   7.126   5.469   9.727
   188G11  C04G12034   7.078   5.559   9.814
   188G11  C03N12035   7.126   5.240   9.645
   188G11  C03Y12036   7.217   5.282   9.547
   188G11  C03X12037   7.271   5.417   9.545
   188G11  C04F12038   6.983   5.495   9.888
   188G11  C04E12039   6.921   5.567   9.990
   188G11  C04O12040   6.965   5.700  10.016
   188G11  C04D12041   6.816   5.521  10.079
   188G11  C04V12042   6.779   5.595  10.191
   188G11  C04W12043   6.819   5.724  10.219
   188G11  C04C12044   6.752   5.391  10.085
   188G11  C04L12045   6.653   5.405  10.196
   188G11  C04U12046   6.604   5.290  10.265
   188G11  C05Q12047   6.540   5.282  10.388
   188G11  C05P12048   6.520   5.149  10.427
   188G11  C04T12049   6.577   5.066  10.332
   188G11  C04B12050   6.627   5.150  10.232
   188G11  C03M12051   6.902   5.115   9.844
   188G11  C04A12052   6.681   5.091  10.119
   188G11  C05H12053   6.599   4.933  10.331
   188G11  C05G12054   6.581   4.825  10.430
   188G11  C05F12055   6.507   4.843  10.552
   188G11  C05E12056   6.497   4.749  10.656
   188G11  C05L12057   6.532   4.608  10.675
   188G11  C05K12058   6.588   4.526  10.569
   188G11  C05J12059   6.617   4.567  10.434
   188G11  C06612060   6.619   4.397  10.606
   188G11  C06512061   6.585   4.345  10.736
   188G11  C06412062   6.524   4.426  10.836
   188G11  C06N12063   6.611   4.212  10.769
   188G11  C06912064   6.671   4.125  10.674
   188G11  C06P12065   6.703   3.995  10.707
   188G11  C06R12066   6.771   3.916  10.620
   188G11  C06B12067   6.800   3.959  10.495
   188G11  C06S12068   6.874   3.879  10.410
   188G11  C02G12069   6.904   3.926  10.285
   188G11  C02F12070   6.987   3.851  10.200
   188G11  C02712071   7.041   3.729  10.241
   188G11  C02612072   7.129   3.659  10.159
   188G11  C00E12073   7.186   3.541  10.202
   188G11  C00D12074   7.285   3.482  10.129
   188G11  C00C12075   7.339   3.368  10.178
   188G11  C00B12076   7.312   3.310  10.297
   188G11  C01512077   7.213   3.370  10.375
   188G11  C07F12078   7.181   3.318  10.498
   188G11  C07E12079   7.090   3.390  10.578
   188G11  C06W12080   7.034   3.510  10.533
   188G11  C06V12081   7.064   3.561  10.410
   188G11  C06X12082   6.945   3.585  10.619
   188G11  C07B12083   6.919   3.541  10.743
   188G11  C07C12084   6.977   3.418  10.787
   188G11  C0FU12085   6.953   3.372  10.915
   188G11  C0F712086   7.017   3.256  10.962
   188G11  C0F612087   6.995   3.217  11.100
   188G11  C0F812088   7.060   3.106  11.147
   188G11  C0F912089   7.039   3.061  11.279
   188G11  C0FA12090   7.096   2.946  11.326
   188G11  C0FZ12091   7.170   2.869  11.238
   188G11  C0G012092   7.224   2.748  11.283
   188G11  C0GD12093   7.201   2.696  11.412
   188G11  C0FC12094   7.115   2.765  11.491
   188G11  C0GH12095   7.076   2.714  11.619
   188G11  C0EY12096   6.992   2.787  11.699
   188G11  C0EX12097   6.940   2.733  11.818
   188G11  C0EW12098   6.858   2.811  11.897
   188G11  C0FR12099   6.791   2.754  12.012
   188G11  H01D12100   6.717   2.808  12.069
   188G11  C0FS12101   6.820   2.623  12.052
   188G11  H01C12102   6.769   2.570  12.131
   188G11  C0GJ12103   6.910   2.548  11.973
   188G11  H01N12104   6.923   2.444  11.997
   188G11  C0EV12105   6.828   2.941  11.861
   188G11  C0FT12106   6.737   3.019  11.933
   188G11  H01E12107   6.693   2.984  12.025
   188G11  C0EU12108   6.877   2.992  11.740
   188G11  C0ET12109   6.849   3.122  11.703
   188G11  C0EI12110   6.879   3.179  11.580
   188G11  C0F112111   6.946   3.096  11.493
   188G11  C0F012112   6.991   2.970  11.537
   188G11  C0EH12113   6.835   3.311  11.545
   188G11  C0EG12114   6.777   3.404  11.641
   188G11  C0EJ12115   6.845   3.346  11.408
   188G11  C0F312116   6.908   3.259  11.317
   188G11  C0EK12117   6.782   3.466  11.363
   188G11  C0EL12118   6.724   3.552  11.463
   188G11  C0EM12119   6.657   3.664  11.395
   188G11  C0EN12120   6.656   3.683  11.256
   188G11  C07I12121   6.606   3.808  11.216
   188G11  C07412122   6.641   3.857  11.093
   188G11  C07312123   6.605   3.986  11.064
   188G11  C07212124   6.619   4.030  10.931
   188G11  C07512125   6.697   3.768  11.005
   188G11  C07612126   6.749   3.647  11.046
   188G11  C07812127   6.820   3.566  10.958
   188G11  C07G12128   6.718   3.816  10.875
   188G11  C07012129   6.785   3.735  10.786
   188G11  C07Z12130   6.579   3.885  11.331
   188G11  C07712131   6.732   3.604  11.170
   188G11  C0EO12132   6.787   3.488  11.227
   188G11  C0F412133   6.858   3.407  11.143
   188G11  C0EQ12134   6.778   3.208  11.787
   188G11  C0FQ12135   6.976   2.601  11.855
   188G11  C0GI12136   7.066   2.534  11.773
   188G11  H01L12137   7.099   2.436  11.804
   188G11  C0EZ12138   6.951   2.913  11.660
   188G11  C0GG12139   7.118   2.588  11.658
   188G11  C0GF12140   7.212   2.519  11.575
   188G11  H01M12141   7.256   2.425  11.605
   188G11  C0GE12142   7.250   2.575  11.460
   188G11  H01K12143   7.315   2.515  11.397
   188G11  O00J12144   7.315   2.675  11.203
   188G11  C0GA12145   7.333   2.723  11.073
   188G11  C0G912146   7.416   2.639  10.990
   188G11  H01H12147   7.465   2.550  11.025
   188G11  C0G812148   7.430   2.668  10.854
   188G11  C0G712149   7.511   2.591  10.762
   188G11  H01I12150   7.560   2.501  10.796
   188G11  O00I12151   7.531   2.631  10.634
   188G11  C0G612152   7.471   2.749  10.588
   188G11  H01J12153   7.479   2.776  10.484
   188G11  C02D12154   7.405   2.838  10.678
   188G11  C02C12155   7.367   2.967  10.631
   188G11  C01712156   7.407   3.026  10.504
   188G11  C01612157   7.341   3.140  10.458
   188G11  O00112158   7.520   2.980  10.431
   188G11  C01812159   7.553   3.030  10.307
   188G11  C00912160   7.477   3.135  10.253
   188G11  C00812161   7.503   3.196  10.123
   188G11  C00712162   7.600   3.186  10.015
   188G11  C00612163   7.700   3.093  10.008
   188G11  C00512164   7.777   3.071   9.890
   188G11  C00412165   7.784   3.147   9.770
   188G11  C00312166   7.723   3.270   9.719
   188G11  C00212167   7.764   3.331   9.598
   188G11  C00P12168   7.710   3.452   9.554
   188G11  C00O12169   7.749   3.519   9.435
   188G11  C00N12170   7.688   3.635   9.388
   188G11  C01012171   7.724   3.693   9.266
   188G11  C01112172   7.661   3.806   9.214
   188G11  C01Q12173   7.696   3.857   9.091
   188G11  C01U12174   7.777   3.788   9.002
   188G11  C01212175   7.838   3.671   9.051
   188G11  H00012176   7.900   3.625   8.976
   188G11  C01V12177   7.791   3.835   8.868
   188G11  H00712178   7.857   3.780   8.803
   188G11  O00512179   7.741   3.957   8.826
   188G11  C01W12180   7.681   4.040   8.924
   188G11  C03112181   7.650   4.175   8.890
   188G11  C03212182   7.609   4.256   9.001
   188G11  H00A12183   7.608   4.363   8.991
   188G11  C03312184   7.569   4.203   9.122
   188G11  H00B12185   7.542   4.266   9.206
   188G11  C01O12186   7.569   4.065   9.142
   188G11  C01N12187   7.511   4.003   9.253
   188G11  C01M12188   7.401   4.059   9.334
   188G11  C01L12189   7.313   4.182   9.362
   188G11  C01K12190   7.228   4.147   9.474
   188G11  C01Y12191   7.150   4.235   9.557
   188G11  C02I12192   7.138   4.365   9.515
   188G11  C02N12193   7.054   4.445   9.599
   188G11  C02M12194   7.061   4.586   9.575
   188G11  C02L12195   7.134   4.634   9.466
   188G11  C02K12196   7.197   4.547   9.370
   188G11  C02U12197   7.259   4.605   9.264
   188G11  C02V12198   7.296   4.737   9.259
   188G11  C03H12199   7.386   4.798   9.163
   188G11  H00C12200   7.435   4.728   9.097
   188G11  C02W12201   7.294   4.520   9.159
   188G11  C02X12202   7.294   4.384   9.192
   188G11  C02Y12203   7.323   4.328   9.060
   188G11  H00812204   7.335   4.227   9.023
   188G11  C02Z12205   7.353   4.438   8.961
   188G11  O00412206   7.389   4.427   8.846
   188G11  O00312207   7.330   4.549   9.025
   188G11  C02J12208   7.200   4.408   9.397
   188G11  C01Z12209   7.090   4.169   9.660
   188G11  C02012210   7.131   4.043   9.705
   188G11  C01I12211   7.223   3.972   9.637
   188G11  C01H12212   7.288   3.864   9.684
   188G11  C00K12213   7.397   3.814   9.617
   188G11  C01S12214   7.434   3.860   9.490
   188G11  C01412215   7.532   3.813   9.414
   188G11  C00J12216   7.465   3.703   9.663
   188G11  C00I12217   7.422   3.650   9.780
   188G11  C00H12218   7.317   3.709   9.849
   188G11  C00G12219   7.277   3.658   9.970
   188G11  C00S12220   7.475   3.530   9.823
   188G11  C00T12221   7.424   3.480   9.936
   188G11  C00U12222   7.476   3.362   9.977
   188G11  C00R12223   7.568   3.462   9.747
   188G11  C00L12224   7.559   3.643   9.585
   188G11  C02812225   7.248   3.817   9.803
   188G11  C02312226   7.145   3.874   9.874
   188G11  C02412227   7.116   3.832   9.996
   188G11  C02112228   7.088   3.991   9.828
   188G11  C02212229   7.007   4.062   9.905
   188G11  C02H12230   6.968   4.016  10.026
   188G11  C03012231   6.889   4.089  10.113
   188G11  C03412232   6.840   4.205  10.072
   188G11  C02P12233   6.960   4.184   9.861
   188G11  C02B12234   7.006   4.240   9.742
   188G11  C01J12235   7.259   4.018   9.511
   188G11  C01X12236   7.277   4.316   9.315
   188G11  C01T12237   7.367   3.970   9.443
   188G11  H00912238   7.691   4.213   8.798
   188G11  C01P12239   7.652   3.988   9.054
   188G11  C01R12240   7.566   3.875   9.291
   188G11  C00Z12241   7.814   3.621   9.183
   188G11  O00012242   7.869   3.499   9.225
   188G11  C00M12243   7.594   3.698   9.461
   188G11  C00Y12244   7.849   3.457   9.353
   188G11  C01312245   7.909   3.341   9.405
   188G11  H00112246   7.987   3.305   9.340
   188G11  C00Q12247   7.615   3.522   9.627
   188G11  C00112248   7.861   3.269   9.519
   188G11  C00012249   7.895   3.137   9.550
   188G11  H00612250   7.954   3.072   9.486
   188G11  C00W12251   7.626   3.339   9.791
   188G11  C01G12252   7.856   3.078   9.672
   188G11  H00512253   7.884   2.975   9.691
   188G11  C01C12254   7.871   2.966   9.930
   188G11  H00212255   7.958   2.931   9.876
   188G11  C01B12256   7.839   2.918  10.063
   188G11  C01D12257   7.898   2.826  10.146
   188G11  H00312258   7.980   2.768  10.108
   188G11  C01E12259   7.841   2.799  10.263
   188G11  H00412260   7.891   2.728  10.328
   188G11  O00212261   7.736   2.874  10.317
   188G11  C01A12262   7.735   3.001  10.111
   188G11  C00V12263   7.577   3.290   9.918
   188G11  C01912264   7.671   2.972  10.241
   188G11  C02E12265   7.274   3.034  10.710
   188G11  C0FX12266   7.245   2.990  10.842
   188G11  C0FW12267   7.164   3.070  10.928
   188G11  C0GB12268   7.299   2.874  10.892
   188G11  C0G312269   7.213   3.154  10.667
   188G11  C07H12270   7.123   3.223  10.750
   188G11  C0GC12271   7.377   2.793  10.808
   188G11  C0G212272   7.276   2.835  11.023
   188G11  C0G112273   7.199   2.912  11.110
   188G11  C0FB12274   7.064   2.894  11.451
   188G11  C0F212275   6.962   3.137  11.362
   188G11  C0FY12276   7.141   3.032  11.062
   188G11  C0F512277   6.921   3.292  11.188
   188G11  C0FV12278   7.101   3.183  10.879
   188G11  C07912279   6.871   3.443  11.004
   188G11  C07A12280   6.836   3.613  10.826
   188G11  C06Y12281   6.895   3.706  10.576
   188G11  C07D12282   7.061   3.344  10.702
   188G11  C01F12283   7.242   3.200  10.537
   188G11  C00A12284   7.378   3.192  10.336
   188G11  C00X12285   7.430   3.307  10.094
   188G11  C00F12286   7.329   3.542  10.013
   188G11  C02912287   7.157   3.491  10.329
   188G11  C02512288   7.174   3.714  10.042
   188G11  C06U12289   7.007   3.680  10.370
   188G11  C02A12290   7.024   3.897  10.078
   188G11  C05Y12291   6.858   4.048  10.241
   188G11  C05Z12292   6.786   4.127  10.329
   188G11  C06012293   6.752   4.253  10.292
   188G11  C06212294   6.698   4.345  10.385
   188G11  C06T12295   6.928   3.757  10.451
   188G11  C06A12296   6.755   4.086  10.458
   188G11  C06Z12297   6.812   3.785  10.657
   188G11  C06Q12298   6.679   3.947  10.836
   188G11  C06812299   6.698   4.170  10.549
   188G11  C06712300   6.670   4.306  10.515
   188G11  C06312301   6.509   4.559  10.809
   188G11  C06C12302   6.473   4.651  10.912
   188G11  C06D12303   6.434   4.785  10.891
   188G11  C06E12304   6.431   4.884  10.988
   188G11  C07Q12305   6.433   4.843  11.118
   188G11  C07P12306   6.442   4.704  11.150
   188G11  C07T12307   6.446   4.670  11.285
   188G11  C07U12308   6.471   4.530  11.315
   188G11  C07V12309   6.495   4.492  11.444
   188G11  C08412310   6.495   4.587  11.544
   188G11  C08C12311   6.464   4.719  11.510
   188G11  C08B12312   6.455   4.814  11.610
   188G11  C08A12313   6.443   4.947  11.571
   188G11  C08912314   6.447   4.997  11.446
   188G11  C08812315   6.451   5.136  11.422
   188G11  C08712316   6.453   5.176  11.291
   188G11  C08612317   6.441   5.080  11.188
   188G11  C08X12318   6.460   5.230  11.528
   188G11  C08T12319   6.484   5.178  11.662
   188G11  C08D12320   6.430   4.899  11.346
   188G11  C08U12321   6.467   5.041  11.675
   188G11  C08V12322   6.495   5.001  11.801
   188G11  C0CY12323   6.501   4.869  11.844
   188G11  C0CX12324   6.540   4.844  11.972
   188G11  C0CW12325   6.560   4.714  12.011
   188G11  C0CV12326   6.547   4.617  11.909
   188G11  C0D412327   6.513   4.647  11.776
   188G11  C0CU12328   6.582   4.492  11.940
   188G11  C0CT12329   6.624   4.448  12.069
   188G11  C0CS12330   6.616   4.541  12.171
   188G11  C0D612331   6.579   4.401  11.839
   188G11  C0EC12332   6.544   4.423  11.708
   188G11  C07X12333   6.546   4.327  11.605
   188G11  C0DL12334   6.595   4.267  11.875
   188G11  C0DK12335   6.586   4.174  11.773
   188G11  C0DN12336   6.636   4.061  11.828
   188G11  C0D812337   6.649   4.222  11.994
   188G11  C08W12338   6.528   5.107  11.881
   188G11  C0CQ12339   6.563   5.079  12.023
   188G11  C09312340   6.489   4.777  11.742
   188G11  C09212341   6.513   4.551  11.677
   188G11  C08512342   6.441   4.765  11.377
   188G11  C07S12343   6.432   4.944  11.216
   188G11  C06F12344   6.429   5.021  10.959
   188G11  C07O12345   6.470   4.608  11.043
   188G11  C07N12346   6.494   4.476  11.076
   188G11  C05D12347   6.448   4.820  10.758
   188G11  C05C12348   6.427   4.953  10.733
   188G11  C05N12349   6.451   4.971  10.598
   188G11  C05M12350   6.620   4.702  10.380
   188G11  C05I12351   6.673   4.475  10.345
   188G11  C06112352   6.772   4.287  10.159
   188G11  C02Q12353   6.872   4.243   9.943
   188G11  C02O12354   6.989   4.377   9.712
   188G11  C03Q12355   6.794   4.575   9.942
   188G11  C03O12356   6.811   4.814   9.958
   188G11  C03L12357   6.982   5.045   9.753
   188G11  C02S12358   7.004   4.683   9.668
   188G11  C02T12359   7.155   4.775   9.452
   188G11  C03K12360   7.081   5.101   9.651
   188G11  C03I12361   7.234   4.830   9.351
   188G11  C03G12362   7.413   4.935   9.158
   188G11  H00D12363   7.483   4.979   9.090
   188G11  C03J12364   7.263   5.189   9.451
   188G11  C03W12365   7.363   5.455   9.452
   188G11  C04I12366   7.228   5.515   9.637
   188G11  C04K12367   7.133   5.681   9.838
   188G11  C04N12368   7.071   5.753   9.939
   188G11  C04X12369   6.913   5.775  10.130
   188G11  C05012370   6.786   5.782  10.342
   188G11  C05W12371   6.685   5.524  10.272
   188G11  C05S12372   6.556   5.617  10.715
   188G11  C05R12373   6.506   5.381  10.473
   188G11  C05O12374   6.464   5.103  10.551
   188G11  C05B12375   6.418   5.055  10.830
   188G11  C05A12376   6.457   5.417  10.808
   188G11  C07R12377   6.445   5.122  11.052
   188G11  C08N12378   6.479   5.314  11.253
   188G11  C08M12379   6.494   5.406  11.361
   188G11  C08L12380   6.541   5.532  11.321
   188G11  C09112381   6.531   5.537  10.839
   188G11  C09K12382   6.795   5.694  11.002
   188G11  H00M12383   6.873   5.643  10.947
   188G11  C08K12384   6.561   5.567  11.188
   188G11  C09J12385   6.820   5.790  11.107
   188G11  C09I12386   6.930   5.810  11.194
   188G11  C09L12387   7.065   5.821  11.160
   188G11  H00N12388   7.100   5.827  11.058
   188G11  C09Q12389   7.147   5.830  11.270
   188G11  H00O12390   7.253   5.835  11.247
   188G11  O00B12391   7.113   5.840  11.401
   188G11  C09G12392   6.981   5.830  11.438
   188G11  C09F12393   6.950   5.839  11.573
   188G11  O00A12394   7.056   5.877  11.640
   188G11  C09P12395   7.037   5.904  11.773
   188G11  H00P12396   7.047   6.006  11.807
   188G11  C09O12397   6.955   5.806  11.848
   188G11  C09D12398   6.835   5.770  11.781
   188G11  C09C12399   6.727   5.685  11.836
   188G11  C09N12400   6.716   5.608  11.954
   188G11  C09T12401   6.826   5.583  12.043
   188G11  C09S12402   6.943   5.662  12.055
   188G11  C0CP12403   7.006   5.609  12.168
   188G11  C0CN12404   6.925   5.513  12.235
   188G11  C0CO12405   6.973   5.450  12.355
   188G11  H01412406   6.918   5.384  12.419
   188G11  C0CZ12407   7.103   5.496  12.391
   188G11  H01512408   7.138   5.448  12.481
   188G11  C0D012409   7.180   5.600  12.327
   188G11  C0G512410   7.309   5.649  12.370
   188G11  H01F12411   7.358   5.617  12.461
   188G11  C0G412412   7.365   5.750  12.298
   188G11  H01G12413   7.454   5.799  12.335
   188G11  O00H12414   7.318   5.807  12.181
   188G11  C0D212415   7.201   5.756  12.139
   188G11  C09V12416   7.138   5.809  12.021
   188G11  H00Q12417   7.191   5.893  11.978
   188G11  C0D112418   7.130   5.656  12.210
   188G11  C09R12419   7.012   5.759  11.970
   188G11  C09H12420   6.892   5.804  11.330
   188G11  C09E12421   6.826   5.803  11.638
   188G11  C09B12422   6.602   5.667  11.770
   188G11  C08Z12423   6.586   5.621  11.426
   188G11  C08O12424   6.480   5.370  11.499
   188G11  C09A12425   6.522   5.568  11.828
   188G11  C08S12426   6.513   5.221  11.795
   188G11  C09912427   6.597   5.529  11.943
   188G11  C09U12428   6.813   5.494  12.157
   188G11  C0BO12429   6.635   5.203  12.481
   188G11  C0CL12430   6.602   5.181  12.114
   188G11  C0D312431   6.562   4.947  12.064
   188G11  C0D512432   6.588   4.674  12.140
   188G11  C0BR12433   6.624   4.974  12.421
   188G11  C0BQ12434   6.627   5.072  12.519
   188G11  C0BL12435   6.640   5.265  12.718
   188G11  C0AF12436   6.642   5.197  12.981
   188G11  C0BH12437   6.639   4.860  12.829
   188G11  C0BG12438   6.661   4.727  12.867
   188G11  C0BD12439   6.660   4.791  13.099
   188G11  C0AG12440   6.639   5.156  13.110
   188G11  C0AI12441   6.716   5.227  13.330
   188G11  C0AV12442   6.870   5.158  13.534
   188G11  C0BB12443   6.693   4.837  13.467
   188G11  O00C12444   6.955   4.966  13.668
   188G11  C0BC12445   6.739   4.715  13.517
   188G11  C0B912446   6.676   4.756  13.237
   188G11  O00E12447   6.808   4.414  13.199
   188G11  C0CA12448   6.825   4.319  13.113
   188G11  O00F12449   6.861   4.207  13.155
   188G11  C0BF12450   6.679   4.696  13.000
   188G11  C0C512451   6.791   4.353  12.976
   188G11  C0C412452   6.804   4.254  12.877
   188G11  H01112453   6.827   4.151  12.898
   188G11  C0C812454   6.687   4.640  12.770
   188G11  C0C212455   6.782   4.288  12.743
   188G11  C0C312456   6.791   4.198  12.631
   188G11  C0DY12457   6.845   4.068  12.636
   188G11  H01612458   6.892   4.007  12.712
   188G11  C0DX12459   6.840   4.026  12.502
   188G11  C0DW12460   6.905   3.904  12.473
   188G11  C0BY12461   6.678   4.577  12.537
   188G11  C0DB12462   6.763   4.232  12.498
   188G11  C0CC12463   6.661   4.509  12.300
   188G11  C0D712464   6.666   4.315  12.098
   188G11  C0DZ12465   6.785   4.126  12.411
   188G11  C0DM12466   6.665   4.083  11.966
   188G11  C0DQ12467   6.821   3.887  12.232
   188G11  C0DV12468   6.890   3.844  12.349
   188G11  C0E012469   6.974   3.803  12.559
   188G11  C0FO12470   6.906   3.454  12.541
   188G11  C0E312471   6.953   3.758  12.691
   188G11  H01712472   6.909   3.819  12.768
   188G11  C0GV12473   6.860   3.417  12.663
   188G11  C0ES12474   6.831   3.420  12.422
   188G11  C0GQ12475   6.576   3.202  12.585
   188G11  C0FJ12476   6.471   3.128  12.239
   188G11  C0ED12477   6.681   3.324  12.199
   188G11  C0ER12478   6.719   3.150  11.897
   188G11  C0EP12479   6.765   3.344  11.768
   188G11  C0E612480   6.755   3.538  12.079
   188G11  C0DE12481   6.741   3.779  11.884
   188G11  C0EA12482   6.742   3.536  11.600
   188G11  C0DF12483   6.759   3.855  11.766
   188G11  C08012484   6.610   3.795  11.438
   188G11  C0DO12485   6.684   3.971  11.736
   188G11  C0DJ12486   6.571   4.198  11.635
   188G11  C07K12487   6.568   4.032  11.301
   188G11  C07W12488   6.520   4.358  11.473
   188G11  C08312489   6.494   4.436  11.212
   188G11  C07J12490   6.567   4.074  11.168
   188G11  C06O12491   6.590   4.165  10.902
   188G11  C06M12492   6.517   4.382  10.971
   198G11  C07112493   2.294   4.093  13.872
   198G11  C07L12494   2.207   3.990  13.838
   198G11  C07M12495   2.253   3.867  13.799
   198G11  C07Y12496   2.169   3.766  13.751
   198G11  C08112497   2.030   3.779  13.747
   198G11  C08212498   1.953   3.679  13.685
   198G11  C0DI12499   1.812   3.677  13.652
   198G11  C0DH12500   1.704   3.759  13.677
   198G11  C0DG12501   1.580   3.724  13.607
   198G11  C0E912502   1.447   3.721  13.668
   198G11  C0E812503   1.396   3.584  13.648
   198G11  C0E712504   1.270   3.529  13.692
   198G11  C0EB12505   1.168   3.607  13.760
   198G11  C0EF12506   1.047   3.561  13.835
   198G11  C0EE12507   1.017   3.438  13.896
   198G11  C0FD12508   0.974   3.435  14.032
   198G11  C0FE12509   0.985   3.540  14.127
   198G11  H01B12510   1.044   3.627  14.104
   198G11  C0FF12511   0.930   3.531  14.260
   198G11  H01A12512   0.936   3.612  14.331
   198G11  C0FG12513   0.858   3.412  14.292
   198G11  H01812514   0.803   3.401  14.385
   198G11  C0FH12515   0.854   3.303  14.199
   198G11  C0FI12516   0.797   3.172  14.231
   198G11  H01912517   0.741   3.158  14.323
   198G11  O00K12518   0.801   3.062  14.152
   198G11  C0FL12519   0.843   3.089  14.030
   198G11  C0FK12520   0.904   3.211  13.985
   198G11  C0FM12521   0.959   3.213  13.851
   198G11  C0FN12522   0.945   3.104  13.769
   198G11  C0FP12523   0.886   2.985  13.819
   198G11  C0GO12524   0.899   2.861  13.759
   198G11  C0GN12525   0.854   2.734  13.805
   198G11  C0GR12526   0.797   2.739  13.934
   198G11  C0GS12527   0.762   2.626  14.003
   198G11  H01Q12528   0.709   2.633  14.097
   198G11  C0GT12529   0.787   2.504  13.939
   198G11  H01O12530   0.752   2.410  13.980
   198G11  C0GU12531   0.851   2.496  13.811
   198G11  H01P12532   0.877   2.405  13.760
   198G11  O00L12533   0.775   2.867  13.989
   198G11  C0GM12534   0.895   2.614  13.748
   198G11  C0GL12535   0.961   2.626  13.620
   198G11  H01R12536   1.010   2.537  13.580
   198G11  C0GK12537   0.978   2.750  13.558
   198G11  C0GP12538   1.049   2.801  13.444
   198G11  C0E212539   1.028   2.942  13.442
   198G11  C0E112540   1.141   2.997  13.373
   198G11  C0DU12541   1.224   3.098  13.430
   198G11  C0DT12542   1.186   3.210  13.511
   198G11  C0E412543   1.084   3.207  13.609
   198G11  C0E512544   1.098   3.319  13.691
   198G11  C0DS12545   1.271   3.312  13.541
   198G11  C0DR12546   1.404   3.292  13.494
   198G11  C0DD12547   1.516   3.368  13.525
   198G11  C0DC12548   1.638   3.292  13.480
   198G11  C0DP12549   1.602   3.162  13.427
   198G11  C0DA12550   1.692   3.055  13.382
   198G11  C0D912551   1.847   3.035  13.383
   198G11  C0CR12552   1.909   2.910  13.352
   198G11  C0C012553   1.840   2.808  13.303
   198G11  C0BZ12554   1.896   2.679  13.276
   198G11  C0C112555   1.812   2.572  13.238
   198G11  C0C712556   1.868   2.445  13.208
   198G11  C0C612557   1.785   2.340  13.173
   198G11  C0C912558   1.837   2.215  13.160
   198G11  C0B812559   1.754   2.105  13.143
   198G11  C0B712560   1.797   1.972  13.123
   198G11  C0B612561   1.735   1.845  13.109
   198G11  C0B512562   1.620   1.815  13.197
   198G11  H00Z12563   1.557   1.888  13.244
   198G11  C0B412564   1.636   1.670  13.235
   198G11  H01012565   1.585   1.608  13.307
   198G11  C0B312566   1.733   1.615  13.151
   198G11  C0AP12567   1.848   1.530  13.187
   198G11  C0AQ12568   1.957   1.596  13.137
   198G11  C0AR12569   2.084   1.578  13.199
   198G11  C0AS12570   2.163   1.684  13.179
   198G11  C0AT12571   2.128   1.812  13.135
   198G11  C0BA12572   1.998   1.835  13.100
   198G11  C0AU12573   2.214   1.914  13.165
   198G11  C0BE12574   2.165   2.047  13.161
   198G11  C0BI12575   2.243   2.150  13.210
   198G11  C0BJ12576   2.373   2.120  13.246
   198G11  C0BK12577   2.457   2.224  13.285
   198G11  C0BW12578   2.409   2.358  13.295
   198G11  C0BV12579   2.273   2.383  13.269
   198G11  C0BU12580   2.218   2.505  13.290
   198G11  C0BX12581   2.081   2.528  13.269
   198G11  C0BT12582   2.304   2.612  13.326
   198G11  C0CD12583   2.250   2.739  13.351
   198G11  C0CB12584   2.111   2.761  13.335
   198G11  C0CE12585   2.334   2.841  13.387
   198G11  C0CK12586   2.473   2.816  13.401
   198G11  C0BS12587   2.527   2.690  13.382
   198G11  C0CJ12588   2.663   2.671  13.401
   198G11  C0BP12589   2.710   2.544  13.394
   198G11  C0CI12590   2.839   2.510  13.438
   198G11  C0CH12591   2.880   2.375  13.424
   198G11  H01212592   2.984   2.364  13.448
   198G11  C0BN12593   2.798   2.270  13.391
   198G11  C0CG12594   2.845   2.142  13.409
   198G11  C0CF12595   2.970   2.115  13.475
   198G11  H01312596   3.039   2.184  13.520
   198G11  O00G12597   3.019   1.988  13.494
   198G11  C0AA12598   2.929   1.885  13.468
   198G11  C0A912599   2.974   1.754  13.484
   198G11  H00U12600   3.078   1.732  13.503
   198G11  C0A812601   2.885   1.649  13.491
   198G11  H00V12602   2.931   1.555  13.518
   198G11  C0A712603   2.744   1.667  13.469
   198G11  C0A612604   2.703   1.797  13.419
   198G11  C0A512605   2.582   1.829  13.355
   198G11  C0A412606   2.486   1.721  13.317
   198G11  C0A312607   2.462   1.583  13.354
   198G11  C0A212608   2.525   1.519  13.461
   198G11  C0A112609   2.491   1.396  13.516
   198G11  C0A012610   2.371   1.309  13.510
   198G11  C09Z12611   2.385   1.189  13.583
   198G11  C09Y12612   2.277   1.101  13.595
   198G11  H00Y12613   2.295   1.009  13.649
   198G11  C09X12614   2.154   1.139  13.529
   198G11  C09W12615   2.039   1.056  13.555
   198G11  H00R12616   2.039   0.963  13.610
   198G11  C0AX12617   1.912   1.091  13.507
   198G11  H00S12618   1.827   1.039  13.549
   198G11  C0AW12619   1.899   1.205  13.439
   198G11  H00T12620   1.795   1.215  13.412
   198G11  C0AN12621   2.010   1.288  13.406
   198G11  C0AO12622   1.994   1.400  13.322
   198G11  C0AM12623   2.140   1.257  13.457
   198G11  C0B212624   2.500   1.143  13.651
   198G11  O00D12625   2.507   1.037  13.708
   198G11  C0B112626   2.609   1.225  13.655
   198G11  H00W12627   2.695   1.185  13.707
   198G11  C0AL12628   2.251   1.341  13.438
   198G11  C0AK12629   2.233   1.451  13.347
   198G11  C0B012630   2.605   1.350  13.590
   198G11  C0AZ12631   2.707   1.452  13.586
   198G11  H00X12632   2.789   1.457  13.656
   198G11  C0AJ12633   2.333   1.554  13.314
   198G11  C0AH12634   2.387   1.764  13.233
   198G11  C0AE12635   2.543   1.961  13.318
   198G11  C0AD12636   2.632   2.065  13.345
   198G11  C0AY12637   2.662   1.554  13.500
   198G11  C0AB12638   2.796   1.904  13.423
   198G11  C0AC12639   2.760   2.033  13.390
   198G11  C0BM12640   2.672   2.301  13.358
   198G11  C0CM12641   2.923   2.617  13.487
   198G11  C09M12642   2.895   2.749  13.453
   198G11  C09812643   3.006   2.842  13.434
   198G11  C08R12644   3.004   2.986  13.440
   198G11  C08Q12645   3.133   3.041  13.427
   198G11  C08P12646   3.203   3.162  13.463
   198G11  C08Y12647   3.342   3.149  13.460
   198G11  C09712648   3.402   3.026  13.471
   198G11  C09612649   3.502   3.029  13.568
   198G11  C09012650   3.536   3.166  13.575
   198G11  C09512651   3.635   3.225  13.647
   198G11  C09412652   3.688   3.357  13.626
   198G11  C08J12653   3.613   3.472  13.572
   198G11  C08I12654   3.658   3.583  13.645
   198G11  C08H12655   3.547   3.678  13.657
   198G11  C08G12656   3.424   3.598  13.643
   198G11  C08F12657   3.282   3.619  13.684
   198G11  C08E12658   3.231   3.734  13.758
   198G11  C05912659   3.312   3.841  13.805
   198G11  C05812660   3.252   3.949  13.864
   198G11  C05712661   3.310   4.070  13.898
   198G11  C05612662   3.448   4.079  13.878
   198G11  C05512663   3.523   3.973  13.847
   198G11  C05412664   3.646   4.013  13.795
   198G11  C05312665   3.642   4.161  13.790
   198G11  C05212666   3.719   4.253  13.715
   198G11  C05112667   3.822   4.205  13.627
   198G11  C05U12668   3.847   4.070  13.577
   198G11  C05T12669   3.771   3.948  13.590
   198G11  C06K12670   3.856   3.848  13.533
   198G11  H00J12671   3.831   3.743  13.530
   198G11  C06L12672   3.978   3.904  13.477
   198G11  H00I12673   4.055   3.849  13.426
   198G11  C05V12674   3.968   4.042  13.506
   198G11  C06J12675   4.058   4.138  13.467
   198G11  H00K12676   4.146   4.102  13.417
   198G11  C05X12677   4.023   4.273  13.487
   198G11  C06I12678   4.102   4.377  13.430
   198G11  H00L12679   4.192   4.349  13.378
   198G11  C04Z12680   4.070   4.513  13.439
   198G11  C06H12681   4.152   4.607  13.374
   198G11  H00H12682   4.240   4.582  13.316
   198G11  C04Y12683   4.113   4.749  13.392
   198G11  C06G12684   4.204   4.845  13.343
   198G11  O00912685   4.316   4.822  13.291
   198G11  O00812686   4.170   4.979  13.358
   198G11  C04P12687   4.052   5.019  13.413
   198G11  C04J12688   4.000   5.155  13.427
   198G11  C04Q12689   4.066   5.276  13.390
   198G11  H00E12690   4.161   5.254  13.345
   198G11  C04M12691   4.011   5.405  13.408
   198G11  C04R12692   4.070   5.527  13.373
   198G11  H00F12693   4.168   5.519  13.328
   198G11  C04S12694   4.003   5.646  13.384
   198G11  H00G12695   4.051   5.733  13.343
   198G11  O00712696   3.879   5.658  13.441
   198G11  C03V12697   3.823   5.540  13.480
   198G11  C03U12698   3.701   5.555  13.537
   198G11  O00612699   3.654   5.680  13.558
   198G11  C03F12700   3.525   5.689  13.594
   198G11  C03E12701   3.443   5.577  13.628
   198G11  C03D12702   3.499   5.449  13.629
   198G11  C03C12703   3.422   5.340  13.666
   198G11  C03B12704   3.291   5.371  13.711
   198G11  C03A12705   3.217   5.266  13.771
   198G11  C03912706   3.270   5.134  13.792
   198G11  C03812707   3.163   5.060  13.860
   198G11  C03712708   3.061   5.161  13.882
   198G11  C03612709   2.955   5.134  13.961
   198G11  C02R12710   2.842   5.214  13.973
   198G11  C03512711   2.751   5.124  14.025
   198G11  C03R12712   2.804   4.994  14.038
   198G11  C03S12713   2.729   4.878  14.017
   198G11  C04912714   2.800   4.760  13.987
   198G11  C04812715   2.935   4.777  13.966
   198G11  C03P12716   3.013   4.898  13.960
   198G11  C04712717   2.999   4.648  13.954
   198G11  C04612718   3.134   4.623  13.944
   198G11  C04512719   3.238   4.707  13.914
   198G11  C03T12720   3.247   4.839  13.896
   198G11  C04412721   3.380   4.875  13.859
   198G11  C04312722   3.462   4.763  13.878
   198G11  C04212723   3.548   4.744  13.768
   198G11  C04112724   3.554   4.882  13.721
   198G11  C04012725   3.644   4.933  13.625
   198G11  C03Z12726   3.673   5.067  13.599
   198G11  C04H12727   3.801   5.065  13.535
   198G11  C04G12728   3.853   4.941  13.529
   198G11  C03N12729   3.604   5.197  13.611
   198G11  C03Y12730   3.682   5.308  13.567
   198G11  C03X12731   3.821   5.300  13.514
   198G11  C04F12732   3.761   4.856  13.585
   198G11  C04E12733   3.801   4.718  13.589
   198G11  C04O12734   3.918   4.684  13.515
   198G11  C04D12735   3.740   4.619  13.667
   198G11  C04V12736   3.780   4.484  13.658
   198G11  C04W12737   3.887   4.443  13.572
   198G11  C04C12738   3.625   4.623  13.746
   198G11  C04L12739   3.600   4.481  13.793
   198G11  C04U12740   3.506   4.441  13.890
   198G11  C05Q12741   3.463   4.314  13.893
   198G11  C05P12742   3.331   4.303  13.933
   198G11  C04T12743   3.284   4.432  13.943
   198G11  C04B12744   3.387   4.518  13.919
   198G11  C03M12745   3.443   4.965  13.767
   198G11  C04A12746   3.372   4.657  13.907
   198G11  C05H12747   3.161   4.483  13.955
   198G11  C05G12748   3.030   4.422  13.960
   198G11  C05F12749   3.007   4.286  13.971
   198G11  C05E12750   2.884   4.224  13.944
   198G11  C05L12751   2.748   4.266  13.924
   198G11  C05K12752   2.699   4.402  13.938
   198G11  C05J12753   2.780   4.520  13.957
   198G11  C06612754   2.558   4.415  13.939
   198G11  C06512755   2.469   4.308  13.915
   198G11  C06412756   2.520   4.181  13.886
   198G11  C06N12757   2.328   4.327  13.928
   198G11  C06912758   2.271   4.449  13.950
   198G11  C06P12759   2.128   4.469  13.956
   198G11  C06R12760   2.073   4.593  13.967
   198G11  C06B12761   2.155   4.705  13.985
   198G11  C06S12762   2.100   4.833  13.988
   198G11  C02G12763   2.185   4.946  13.987
   198G11  C02F12764   2.131   5.076  13.992
   198G11  C02712765   1.996   5.089  13.981
   198G11  C02612766   1.939   5.216  13.976
   198G11  C00E12767   1.803   5.234  13.955
   198G11  C00D12768   1.756   5.359  13.920
   198G11  C00C12769   1.622   5.375  13.892
   198G11  C00B12770   1.542   5.269  13.869
   198G11  C01512771   1.593   5.141  13.889
   198G11  C07F12772   1.508   5.032  13.872
   198G11  C07E12773   1.560   4.903  13.887
   198G11  C06W12774   1.697   4.891  13.918
   198G11  C06V12775   1.779   5.001  13.940
   198G11  C06X12776   1.747   4.762  13.935
   198G11  C07B12777   1.666   4.650  13.920
   198G11  C07C12778   1.530   4.666  13.890
   198G11  C0FU12779   1.447   4.557  13.879
   198G11  C0F712780   1.312   4.577  13.849
   198G11  C0F612781   1.234   4.464  13.833
   198G11  C0F812782   1.098   4.482  13.814
   198G11  C0F912783   1.015   4.367  13.801
   198G11  C0FA12784   0.874   4.381  13.797
   198G11  C0FZ12785   0.825   4.508  13.777
   198G11  C0G012786   0.685   4.528  13.766
   198G11  C0GD12787   0.593   4.423  13.792
   198G11  C0FC12788   0.649   4.294  13.818
   198G11  C0GH12789   0.572   4.179  13.843
   198G11  C0EY12790   0.633   4.053  13.863
   198G11  C0EX12791   0.555   3.944  13.907
   198G11  C0EW12792   0.616   3.820  13.922
   198G11  C0FR12793   0.543   3.711  13.966
   198G11  H01D12794   0.588   3.613  13.975
   198G11  C0FS12795   0.415   3.721  14.010
   198G11  H01C12796   0.372   3.628  14.043
   198G11  C0GJ12797   0.346   3.839  13.981
   198G11  H01N12798   0.240   3.845  14.001
   198G11  C0EV12799   0.753   3.804  13.887
   198G11  C0FT12800   0.818   3.676  13.887
   198G11  H01E12801   0.776   3.583  13.922
   198G11  C0EU12802   0.826   3.917  13.848
   198G11  C0ET12803   0.964   3.901  13.809
   198G11  C0EI12804   1.048   4.005  13.784
   198G11  C0F112805   0.990   4.130  13.786
   198G11  C0F012806   0.848   4.147  13.807
   198G11  C0EH12807   1.187   3.983  13.777
   198G11  C0EG12808   1.252   3.856  13.751
   198G11  C0EJ12809   1.268   4.097  13.797
   198G11  C0F312810   1.210   4.228  13.812
   198G11  C0EK12811   1.404   4.083  13.805
   198G11  C0EL12812   1.466   3.956  13.773
   198G11  C0EM12813   1.611   3.956  13.797
   198G11  C0EN12814   1.670   4.065  13.858
   198G11  C07I12815   1.808   4.049  13.863
   198G11  C07412816   1.890   4.149  13.908
   198G11  C07312817   2.023   4.127  13.897
   198G11  C07212818   2.104   4.235  13.921
   198G11  C07512819   1.830   4.272  13.925
   198G11  C07612820   1.695   4.291  13.905
   198G11  C07812821   1.640   4.412  13.910
   198G11  C07G12822   1.911   4.378  13.946
   198G11  C07012823   1.855   4.502  13.956
   198G11  C07Z12824   1.843   3.924  13.813
   198G11  C07712825   1.614   4.188  13.873
   198G11  C0EO12826   1.478   4.194  13.845
   198G11  C0F412827   1.423   4.322  13.850
   198G11  C0EQ12828   1.023   3.779  13.816
   198G11  C0FQ12829   0.414   3.953  13.924
   198G11  C0GI12830   0.360   4.081  13.895
   198G11  H01L12831   0.253   4.084  13.911
   198G11  C0EZ12832   0.767   4.041  13.839
   198G11  C0GG12833   0.432   4.195  13.859
   198G11  C0GF12834   0.378   4.321  13.833
   198G11  H01M12835   0.272   4.330  13.845
   198G11  C0GE12836   0.454   4.431  13.806
   198G11  H01K12837   0.406   4.526  13.788
   198G11  O00J12838   0.640   4.649  13.738
   198G11  C0GA12839   0.722   4.756  13.714
   198G11  C0G912840   0.671   4.878  13.675
   198G11  H01H12841   0.569   4.903  13.650
   198G11  C0G812842   0.754   4.997  13.678
   198G11  C0G712843   0.705   5.129  13.651
   198G11  H01I12844   0.605   5.134  13.611
   198G11  O00I12845   0.792   5.233  13.632
   198G11  C0G612846   0.918   5.219  13.671
   198G11  H01J12847   0.982   5.298  13.634
   198G11  C02D12848   0.975   5.092  13.714
   198G11  C02C12849   1.105   5.083  13.763
   198G11  C01712850   1.189   5.199  13.783
   198G11  C01612851   1.326   5.181  13.813
   198G11  O00112852   1.147   5.325  13.767
   198G11  C01812853   1.231   5.432  13.742
   198G11  C00912854   1.363   5.421  13.784
   198G11  C00812855   1.463   5.527  13.792
   198G11  C00712856   1.472   5.659  13.739
   198G11  C00612857   1.370   5.719  13.666
   198G11  C00512858   1.380   5.851  13.616
   198G11  C00412859   1.494   5.939  13.603
   198G11  C00312860   1.640   5.920  13.641
   198G11  C00212861   1.735   6.016  13.592
   198G11  C00P12862   1.878   6.003  13.625
   198G11  C00O12863   1.973   6.095  13.582
   198G11  C00N12864   2.108   6.086  13.608
   198G11  C01012865   2.202   6.169  13.549
   198G11  C01112866   2.338   6.155  13.571
   198G11  C01Q12867   2.431   6.243  13.516
   198G11  C01U12868   2.389   6.346  13.425
   198G11  C01212869   2.252   6.355  13.405
   198G11  H00012870   2.217   6.430  13.335
   198G11  C01V12871   2.490   6.425  13.368
   198G11  H00712872   2.455   6.499  13.298
   198G11  O00512873   2.627   6.402  13.390
   198G11  C01W12874   2.657   6.319  13.493
   198G11  C03112875   2.796   6.321  13.524
   198G11  C03212876   2.830   6.239  13.635
   198G11  H00A12877   2.933   6.230  13.667
   198G11  C03312878   2.741   6.152  13.695
   198G11  H00B12879   2.774   6.081  13.770
   198G11  C01O12880   2.606   6.138  13.644
   198G11  C01N12881   2.521   6.035  13.677
   198G11  C01M12882   2.571   5.911  13.747
   198G11  C01L12883   2.686   5.811  13.764
   198G11  C01K12884   2.639   5.704  13.843
   198G11  C01Y12885   2.698   5.577  13.866
   198G11  C02I12886   2.825   5.555  13.821
   198G11  C02N12887   2.884   5.429  13.847
   198G11  C02M12888   3.019   5.406  13.800
   198G11  C02L12889   3.093   5.512  13.744
   198G11  C02K12890   3.034   5.635  13.723
   198G11  C02U12891   3.112   5.735  13.662
   198G11  C02V12892   3.249   5.718  13.649
   198G11  C03H12893   3.330   5.832  13.622
   198G11  H00C12894   3.299   5.936  13.621
   198G11  C02W12895   3.045   5.838  13.600
   198G11  C02X12896   2.907   5.850  13.618
   198G11  C02Y12897   2.875   5.957  13.531
   198G11  H00812898   2.781   6.000  13.499
   198G11  C02Z12899   3.006   6.018  13.480
   198G11  O00412900   3.027   6.123  13.423
   198G11  O00312901   3.103   5.936  13.524
   198G11  C02J12902   2.895   5.662  13.752
   198G11  C01Z12903   2.615   5.484  13.927
   198G11  C02012904   2.477   5.507  13.941
   198G11  C01I12905   2.420   5.626  13.915
   198G11  C01H12906   2.285   5.646  13.895
   198G11  C00K12907   2.237   5.763  13.838
   198G11  C01S12908   2.325   5.862  13.789
   198G11  C01412909   2.285   5.963  13.709
   198G11  C00J12910   2.106   5.774  13.809
   198G11  C00I12911   2.015   5.673  13.842
   198G11  C00H12912   2.063   5.563  13.909
   198G11  C00G12913   1.977   5.459  13.942
   198G11  C00S12914   1.879   5.689  13.819
   198G11  C00T12915   1.804   5.590  13.854
   198G11  C00U12916   1.669   5.603  13.830
   198G11  C00R12917   1.834   5.798  13.745
   198G11  C00L12918   2.057   5.883  13.733
   198G11  C02812919   2.197   5.545  13.927
   198G11  C02312920   2.245   5.422  13.961
   198G11  C02412921   2.160   5.310  13.976
   198G11  C02112922   2.385   5.403  13.957
   198G11  C02212923   2.435   5.277  13.977
   198G11  C02H12924   2.350   5.162  13.994
   198G11  C03012925   2.404   5.034  14.007
   198G11  C03412926   2.541   5.022  14.014
   198G11  C02P12927   2.574   5.263  13.983
   198G11  C02B12928   2.665   5.361  13.950
   198G11  C01J12929   2.510   5.729  13.877
   198G11  C01X12930   2.826   5.782  13.714
   198G11  C01T12931   2.464   5.843  13.809
   198G11  H00912932   2.864   6.385  13.470
   198G11  C01P12933   2.560   6.237  13.554
   198G11  C01R12934   2.383   6.049  13.653
   198G11  C00Z12935   2.154   6.278  13.471
   198G11  O00012936   2.018   6.294  13.448
   198G11  C00M12937   2.149   5.981  13.689
   198G11  C00Y12938   1.928   6.202  13.500
   198G11  C01312939   1.794   6.221  13.475
   198G11  H00112940   1.767   6.313  13.426
   198G11  C00Q12941   1.925   5.891  13.701
   198G11  C00112942   1.693   6.130  13.519
   198G11  C00012943   1.561   6.144  13.486
   198G11  H00612944   1.524   6.230  13.432
   198G11  C00W12945   1.692   5.812  13.713
   198G11  C01G12946   1.464   6.056  13.532
   198G11  H00512947   1.363   6.078  13.500
   198G11  C01C12948   1.245   5.886  13.573
   198G11  H00212949   1.204   5.976  13.528
   198G11  C01B12950   1.161   5.775  13.594
   198G11  C01D12951   1.034   5.755  13.543
   198G11  H00312952   0.987   5.842  13.499
   198G11  C01E12953   0.976   5.641  13.564
   198G11  H00412954   0.877   5.621  13.526
   198G11  O00212955   1.040   5.530  13.629
   198G11  C01A12956   1.238   5.661  13.645
   198G11  C00V12957   1.609   5.705  13.753
   198G11  C01912958   1.173   5.539  13.669
   198G11  C02E12959   1.157   4.958  13.794
   198G11  C0FX12960   1.073   4.847  13.788
   198G11  C0FW12961   1.123   4.718  13.813
   198G11  C0GB12962   0.941   4.857  13.743
   198G11  C0G312963   1.290   4.943  13.827
   198G11  C07H12964   1.336   4.815  13.852
   198G11  C0GC12965   0.890   4.983  13.715
   198G11  C0G212966   0.860   4.743  13.743
   198G11  C0G112967   0.910   4.617  13.773
   198G11  C0FB12968   0.791   4.276  13.809
   198G11  C0F212969   1.073   4.240  13.797
   198G11  C0FY12970   1.040   4.606  13.807
   198G11  C0F512971   1.286   4.338  13.843
   198G11  C0FV12972   1.256   4.702  13.841
   198G11  C07912973   1.504   4.430  13.885
   198G11  C07A12974   1.717   4.518  13.934
   198G11  C06Y12975   1.884   4.741  13.958
   198G11  C07D12976   1.475   4.795  13.873
   198G11  C01F12977   1.376   5.051  13.839
   198G11  C00A12978   1.411   5.294  13.828
   198G11  C00X12979   1.582   5.499  13.850
   198G11  C00F12980   1.843   5.473  13.913
   198G11  C02912981   1.724   5.124  13.929
   198G11  C02512982   2.022   5.329  13.975
   198G11  C06U12983   1.914   4.980  13.972
   198G11  C02A12984   2.214   5.183  13.992
   198G11  C05Y12985   2.319   4.922  13.997
   198G11  C05Z12986   2.377   4.801  13.992
   198G11  C06012987   2.519   4.782  13.991
   198G11  C06212988   2.580   4.658  13.976
   198G11  C06T12989   1.966   4.848  13.971
   198G11  C06A12990   2.296   4.685  13.982
   198G11  C06Z12991   1.937   4.608  13.971
   198G11  C06Q12992   2.047   4.360  13.946
   198G11  C06812993   2.357   4.559  13.970
   198G11  C06712994   2.497   4.542  13.967
   198G11  C06312995   2.660   4.159  13.892
   198G11  C06C12996   2.702   4.029  13.877
   198G11  C06D12997   2.830   3.991  13.876
   198G11  C06E12998   2.894   3.873  13.829
   198G11  C07Q12999   2.809   3.780  13.784
   198G11  C07P13000   2.670   3.802  13.787
   198G11  C07T13001   2.584   3.703  13.741
   198G11  C07U13002   2.448   3.724  13.752
   198G11  C07V13003   2.367   3.626  13.703
   198G11  C08413004   2.421   3.506  13.658
   198G11  C08C13005   2.553   3.487  13.658
   198G11  C08B13006   2.602   3.374  13.604
   198G11  C08A13007   2.739   3.359  13.595
   198G11  C08913008   2.832   3.452  13.636
   198G11  C08813009   2.971   3.426  13.623
   198G11  C08713010   3.055   3.527  13.655
   198G11  C08613011   3.007   3.644  13.719
   198G11  C08X13012   3.017   3.307  13.563
   198G11  C08T13013   2.919   3.202  13.535
   198G11  C08D13014   2.779   3.567  13.691
   198G11  C08U13015   2.788   3.236  13.552
   198G11  C08V13016   2.700   3.134  13.518
   198G11  C0CY13017   2.562   3.143  13.529
   198G11  C0CX13018   2.494   3.036  13.478
   198G11  C0CW13019   2.360   3.062  13.467
   198G11  C0CV13020   2.305   3.182  13.512
   198G11  C0D413021   2.383   3.286  13.560
   198G11  C0CU13022   2.167   3.200  13.498
   198G11  C0CT13023   2.080   3.108  13.444
   198G11  C0CS13024   2.140   2.983  13.409
   198G11  C0D613025   2.123   3.318  13.554
   198G11  C0EC13026   2.203   3.422  13.614
   198G11  C07X13027   2.151   3.538  13.660
   198G11  C0DL13028   1.990   3.343  13.532
   198G11  C0DK13029   1.940   3.462  13.584
   198G11  C0DN13030   1.809   3.459  13.550
   198G11  C0D813031   1.894   3.260  13.471
   198G11  C08W13032   2.770   3.024  13.476
   198G11  C0CQ13033   2.693   2.906  13.441
   198G11  C09313034   2.518   3.266  13.567
   198G11  C09213035   2.337   3.405  13.609
   198G11  C08513036   2.641   3.584  13.697
   198G11  C07S13037   2.864   3.665  13.734
   198G11  C06F13038   3.032   3.854  13.831
   198G11  C07O13039   2.618   3.929  13.831
   198G11  C07N13040   2.479   3.953  13.826
   198G11  C05D13041   2.914   4.086  13.926
   198G11  C05C13042   3.051   4.061  13.935
   198G11  C05N13043   3.108   4.186  13.961
   198G11  C05M13044   2.923   4.521  13.953
   198G11  C05I13045   2.720   4.645  13.973
   198G11  C06113046   2.596   4.894  14.006
   198G11  C02Q13047   2.616   5.135  14.004
   198G11  C02O13048   2.799   5.340  13.921
   198G11  C03Q13049   2.933   5.007  13.998
   198G11  C03O13050   3.141   4.924  13.900
   198G11  C03L13051   3.400   5.100  13.741
   198G11  C02S13052   3.091   5.287  13.821
   198G11  C02T13053   3.230   5.492  13.706
   198G11  C03K13054   3.479   5.207  13.675
   198G11  C03I13055   3.309   5.594  13.660
   198G11  C03G13056   3.460   5.815  13.590
   198G11  H00D13057   3.521   5.893  13.547
   198G11  C03J13058   3.631   5.435  13.578
   198G11  C03W13059   3.885   5.412  13.468
   198G11  C04I13060   3.876   5.178  13.491
   198G11  C04K13061   3.975   4.918  13.472
   198G11  C04N13062   4.000   4.784  13.457
   198G11  C04X13063   3.957   4.550  13.509
   198G11  C05013064   3.912   4.304  13.568
   198G11  C05W13065   3.692   4.395  13.722
   198G11  C05S13066   3.665   3.921  13.688
   198G11  C05R13067   3.526   4.193  13.860
   198G11  C05O13068   3.247   4.192  13.943
   198G11  C05B13069   3.114   3.952  13.874
   198G11  C05A13070   3.455   3.859  13.796
   198G11  C07R13071   3.090   3.744  13.766
   198G11  C08N13072   3.194   3.511  13.639
   198G11  C08M13073   3.243   3.395  13.570
   198G11  C08L13074   3.380   3.374  13.557
   198G11  C09113075   3.558   3.811  13.711
   198G11  C09K13076   3.737   3.539  13.763
   198G11  H00M13077   3.777   3.603  13.840
   198G11  C08K13078   3.471   3.481  13.585
   198G11  C09J13079   3.771   3.397  13.735
   198G11  C09I13080   3.773   3.284  13.823
   198G11  C09L13081   3.846   3.258  13.947
   198G11  H00N13082   3.910   3.332  13.993
   198G11  C09Q13083   3.839   3.133  13.997
   198G11  H00O13084   3.905   3.104  14.078
   198G11  O00B13085   3.760   3.031  13.948
   198G11  C09G13086   3.681   3.050  13.834
   198G11  C09F13087   3.602   2.937  13.794
   198G11  O00A13088   3.617   2.830  13.877
   198G11  C09P13089   3.572   2.711  13.830
   198G11  H00P13090   3.640   2.628  13.847
   198G11  C09O13091   3.455   2.705  13.744
   198G11  C09D13092   3.439   2.809  13.649
   198G11  C09C13093   3.337   2.817  13.542
   198G11  C09N13094   3.218   2.741  13.511
   198G11  C09T13095   3.159   2.642  13.599
   198G11  C09S13096   3.232   2.573  13.700
   198G11  C0CP13097   3.149   2.476  13.738
   198G11  C0CN13098   3.023   2.475  13.673
   198G11  C0CO13099   2.926   2.384  13.717
   198G11  H01413100   2.825   2.389  13.679
   198G11  C0CZ13101   2.964   2.298  13.826
   198G11  H01513102   2.889   2.230  13.861
   198G11  C0D013103   3.093   2.291  13.879
   198G11  C0G513104   3.136   2.194  13.971
   198G11  H01F13105   3.073   2.110  13.997
   198G11  C0G413106   3.255   2.203  14.030
   198G11  H01G13107   3.284   2.117  14.089
   198G11  O00H13108   3.355   2.288  13.985
   198G11  C0D213109   3.317   2.389  13.898
   198G11  C09V13110   3.399   2.494  13.858
   198G11  H00Q13111   3.492   2.498  13.914
   198G11  C0D113112   3.187   2.385  13.840
   198G11  C09R13113   3.361   2.591  13.759
   198G11  C09H13114   3.692   3.177  13.771
   198G11  C09E13115   3.523   2.927  13.671
   198G11  C09B13116   3.330   2.917  13.450
   198G11  C08Z13117   3.420   3.239  13.533
   198G11  C08O13118   3.156   3.283  13.530
   198G11  C09A13119   3.209   2.924  13.380
   198G11  C08S13120   2.907   3.063  13.490
   198G11  C09913121   3.144   2.808  13.410
   198G11  C09U13122   3.030   2.580  13.577
   198G11  C0BO13123   2.627   2.435  13.350
   198G11  C0CL13124   2.755   2.778  13.427
   198G11  C0D313125   2.557   2.922  13.440
   198G11  C0D513126   2.279   2.965  13.416
   198G11  C0BR13127   2.442   2.589  13.347
   198G11  C0BQ13128   2.490   2.462  13.329
   198G11  C0BL13129   2.589   2.199  13.324
   198G11  C0AF13130   2.424   1.992  13.256
   198G11  C0BH13131   2.192   2.278  13.225
   198G11  C0BG13132   2.057   2.296  13.204
   198G11  C0BD13133   2.022   2.063  13.153
   198G11  C0AG13134   2.342   1.894  13.215
   198G11  C0AI13135   2.291   1.664  13.232
   198G11  C0AV13136   2.105   1.478  13.286
   198G11  C0BB13137   1.916   1.721  13.083
   198G11  O00C13138   1.866   1.423  13.273
   198G11  C0BC13139   1.782   1.720  13.067
   198G11  C0B913140   1.935   1.958  13.111
   198G11  O00E13141   1.616   2.128  13.133
   198G11  C0CA13142   1.559   2.253  13.133
   198G11  O00F13143   1.438   2.260  13.094
   198G11  C0BF13144   1.973   2.193  13.167
   198G11  C0C513145   1.647   2.361  13.158
   198G11  C0C413146   1.589   2.489  13.169
   198G11  H01113147   1.482   2.501  13.161
   198G11  C0C813148   2.002   2.423  13.226
   198G11  C0C213149   1.674   2.592  13.211
   198G11  C0C313150   1.629   2.722  13.239
   198G11  C0DY13151   1.496   2.760  13.234
   198G11  H01613152   1.405   2.714  13.198
   198G11  C0DX13153   1.496   2.895  13.293
   198G11  C0DW13154   1.366   2.944  13.345
   198G11  C0BY13155   2.032   2.656  13.292
   198G11  C0DB13156   1.705   2.825  13.291
   198G11  C0CC13157   2.053   2.888  13.361
   198G11  C0D713158   1.938   3.133  13.431
   198G11  C0DZ13159   1.628   2.938  13.328
   198G11  C0DM13160   1.776   3.341  13.476
   198G11  C0DQ13161   1.459   3.168  13.432
   198G11  C0DV13162   1.360   3.077  13.391
   198G11  C0E013163   1.231   2.896  13.339
   198G11  C0FO13164   0.976   2.981  13.568
   198G11  C0E313165   1.178   2.772  13.387
   198G11  H01713166   1.237   2.685  13.412
   198G11  C0GV13167   0.944   2.863  13.628
   198G11  C0ES13168   1.004   3.100  13.642
   198G11  C0GQ13169   0.832   2.984  13.943
   198G11  C0FJ13170   0.913   3.316  14.075
   198G11  C0ED13171   1.031   3.330  13.811
   198G11  C0ER13172   0.951   3.664  13.852
   198G11  C0EP13173   1.151   3.752  13.763
   198G11  C0E613174   1.220   3.398  13.644
   198G11  C0DE13175   1.504   3.510  13.566
   198G11  C0EA13176   1.392   3.842  13.728
   198G11  C0DF13177   1.609   3.600  13.546
   198G11  C08013178   1.718   3.865  13.766
   198G11  C0DO13179   1.744   3.571  13.582
   198G11  C0DJ13180   2.018   3.568  13.643
   198G11  C07K13181   1.986   3.903  13.802
   198G11  C07W13182   2.231   3.644  13.710
   198G11  C08313183   2.392   3.847  13.797
   198G11  C07J13184   2.070   4.006  13.847
   198G11  C06O13185   2.240   4.217  13.912
   198G11  C06M13186   2.435   4.078  13.864
   208G11  C07113187   1.373   9.163  12.887
   208G11  C07L13188   1.298   9.103  12.987
   208G11  C07M13189   1.353   9.076  13.112
   208G11  C07Y13190   1.278   9.017  13.215
   208G11  C08113191   1.141   8.986  13.199
   208G11  C08213192   1.073   8.922  13.305
   208G11  C0DI13193   0.946   8.847  13.299
   208G11  C0DH13194   0.841   8.832  13.205
   208G11  C0DG13195   0.750   8.729  13.252
   208G11  C0E913196   0.608   8.717  13.229
   208G11  C0E813197   0.554   8.675  13.363
   208G11  C0E713198   0.418   8.649  13.411
   208G11  C0EB13199   0.313   8.653  13.310
   208G11  C0EF13200   0.168   8.659  13.337
   208G11  C0EE13201   0.093   8.697  13.453
   208G11  C0FD13202  -0.015   8.790  13.440
   208G11  C0FE13203  -0.037   8.877  13.324
   208G11  H01B13204   0.023   8.870  13.234
   208G11  C0FF13205  -0.140   8.972  13.323
   208G11  H01A13206  -0.162   9.029  13.233
   208G11  C0FG13207  -0.224   8.986  13.429
   208G11  H01813208  -0.299   9.063  13.419
   208G11  C0FH13209  -0.208   8.900  13.544
   208G11  C0FI13210  -0.297   8.905  13.656
   208G11  H01913211  -0.382   8.971  13.662
   208G11  O00K13212  -0.277   8.834  13.774
   208G11  C0FL13213  -0.175   8.748  13.766
   208G11  C0FK13214  -0.083   8.726  13.659
   208G11  C0FM13215   0.032   8.644  13.676
   208G11  C0FN13216   0.040   8.559  13.788
   208G11  C0FP13217  -0.054   8.581  13.896
   208G11  C0GO13218  -0.043   8.524  14.022
   208G11  C0GN13219  -0.124   8.554  14.129
   208G11  C0GR13220  -0.233   8.640  14.101
   208G11  C0GS13221  -0.333   8.660  14.200
   208G11  H01Q13222  -0.421   8.713  14.167
   208G11  C0GT13223  -0.304   8.617  14.328
   208G11  H01O13224  -0.376   8.633  14.407
   208G11  C0GU13225  -0.184   8.544  14.354
   208G11  H01P13226  -0.156   8.511  14.453
   208G11  O00L13227  -0.260   8.677  13.975
   208G11  C0GM13228  -0.088   8.507  14.253
   208G11  C0GL13229   0.034   8.437  14.271
   208G11  H01R13230   0.067   8.388  14.361
   208G11  C0GK13231   0.111   8.395  14.156
   208G11  C0GP13232   0.239   8.341  14.129
   208G11  C0E213233   0.246   8.316  13.984
   208G11  C0E113234   0.384   8.324  13.953
   208G11  C0DU13235   0.446   8.400  13.856
   208G11  C0DT13236   0.393   8.459  13.742
   208G11  C0E413237   0.260   8.493  13.723
   208G11  C0E513238   0.253   8.579  13.609
   208G11  C0DS13239   0.471   8.532  13.644
   208G11  C0DR13240   0.607   8.556  13.677
   208G11  C0DD13241   0.691   8.638  13.604
   208G11  C0DC13242   0.817   8.630  13.684
   208G11  C0DP13243   0.798   8.572  13.816
   208G11  C0DA13244   0.885   8.563  13.936
   208G11  C0D913245   1.033   8.605  13.949
   208G11  C0CR13246   1.108   8.577  14.067
   208G11  C0C013247   1.052   8.507  14.168
   208G11  C0BZ13248   1.112   8.477  14.293
   208G11  C0C113249   1.039   8.421  14.399
   208G11  C0C713250   1.104   8.391  14.519
   208G11  C0C613251   1.032   8.331  14.624
   208G11  C0C913252   1.094   8.313  14.743
   208G11  C0B813253   1.021   8.265  14.853
   208G11  C0B713254   1.081   8.223  14.973
   208G11  C0B613255   1.029   8.175  15.103
   208G11  C0B513256   0.899   8.215  15.164
   208G11  H00Z13257   0.813   8.248  15.108
   208G11  C0B413258   0.924   8.210  15.309
   208G11  H01013259   0.863   8.243  15.392
   208G11  C0B313260   1.061   8.162  15.335
   208G11  C0AP13261   1.186   8.163  15.417
   208G11  C0AQ13262   1.287   8.135  15.322
   208G11  C0AR13263   1.421   8.177  15.338
   208G11  C0AS13264   1.493   8.210  15.227
   208G11  C0AT13265   1.433   8.225  15.098
   208G11  C0BA13266   1.305   8.191  15.084
   208G11  C0AU13267   1.493   8.290  14.997
   208G11  C0BE13268   1.429   8.321  14.877
   208G11  C0BI13269   1.503   8.381  14.777
   208G11  C0BJ13270   1.638   8.420  14.796
   208G11  C0BK13271   1.709   8.490  14.699
   208G11  C0BW13272   1.650   8.510  14.579
   208G11  C0BV13273   1.512   8.478  14.561
   208G11  C0BU13274   1.451   8.506  14.438
   208G11  C0BX13275   1.320   8.471  14.424
   208G11  C0BT13276   1.523   8.562  14.333
   208G11  C0CD13277   1.457   8.596  14.214
   208G11  C0CB13278   1.319   8.568  14.203
   208G11  C0CE13279   1.528   8.666  14.119
   208G11  C0CK13280   1.663   8.694  14.136
   208G11  C0BS13281   1.733   8.658  14.257
   208G11  C0CJ13282   1.871   8.683  14.272
   208G11  C0BP13283   1.937   8.651  14.391
   208G11  C0CI13284   2.077   8.666  14.407
   208G11  C0CH13285   2.128   8.648  14.534
   208G11  H01213286   2.234   8.671  14.542
   208G11  C0BN13287   2.050   8.610  14.647
   208G11  C0CG13288   2.106   8.597  14.772
   208G11  C0CF13289   2.230   8.656  14.805
   208G11  H01313290   2.279   8.722  14.735
   208G11  O00G13291   2.303   8.632  14.918
   208G11  C0AA13292   2.221   8.573  15.015
   208G11  C0A913293   2.280   8.553  15.134
   208G11  H00U13294   2.386   8.572  15.143
   208G11  C0A813295   2.208   8.509  15.243
   208G11  H00V13296   2.273   8.500  15.328
   208G11  C0A713297   2.073   8.474  15.243
   208G11  C0A613298   2.009   8.481  15.111
   208G11  C0A513299   1.880   8.431  15.087
   208G11  C0A413300   1.800   8.364  15.188
   208G11  C0A313301   1.806   8.346  15.330
   208G11  C0A213302   1.887   8.416  15.418
   208G11  C0A113303   1.871   8.407  15.558
   208G11  C0A013304   1.764   8.366  15.650
   208G11  C09Z13305   1.798   8.387  15.789
   208G11  C09Y13306   1.698   8.372  15.891
   208G11  H00Y13307   1.726   8.402  15.991
   208G11  C09X13308   1.568   8.338  15.853
   208G11  C09W13309   1.477   8.328  15.958
   208G11  H00R13310   1.508   8.366  16.054
   208G11  C0AX13311   1.351   8.279  15.944
   208G11  H00S13312   1.280   8.275  16.025
   208G11  C0AW13313   1.314   8.251  15.810
   208G11  H00T13314   1.212   8.217  15.799
   208G11  C0AN13315   1.403   8.262  15.694
   208G11  C0AO13316   1.362   8.228  15.567
   208G11  C0AM13317   1.537   8.309  15.720
   208G11  C0B213318   1.929   8.426  15.848
   208G11  O00D13319   1.957   8.430  15.972
   208G11  C0B113320   2.035   8.446  15.751
   208G11  H00W13321   2.137   8.462  15.782
   208G11  C0AL13322   1.635   8.318  15.613
   208G11  C0AK13323   1.591   8.281  15.481
   208G11  C0B013324   2.000   8.442  15.612
   208G11  C0AZ13325   2.090   8.468  15.503
   208G11  H00X13326   2.195   8.492  15.508
   208G11  C0AJ13327   1.679   8.292  15.370
   208G11  C0AH13328   1.687   8.301  15.139
   208G11  C0AE13329   1.829   8.443  14.955
   208G11  C0AD13330   1.898   8.494  14.848
   208G11  C0AY13331   2.017   8.452  15.380
   208G11  C0AB13332   2.085   8.529  15.000
   208G11  C0AC13333   2.027   8.540  14.874
   208G11  C0BM13334   1.916   8.584  14.621
   208G11  C0CM13335   2.150   8.689  14.292
   208G11  C09M13336   2.086   8.766  14.189
   208G11  C09813337   2.161   8.862  14.127
   208G11  C08R13338   2.146   8.946  14.009
   208G11  C08Q13339   2.247   9.037  13.983
   208G11  C08P13340   2.306   9.109  13.867
   208G11  C08Y13341   2.446   9.139  13.876
   208G11  C09713342   2.521   9.079  13.972
   208G11  C09613343   2.648   9.047  13.933
   208G11  C09013344   2.667   9.127  13.816
   208G11  C09513345   2.770   9.118  13.721
   208G11  C09413346   2.788   9.218  13.614
   208G11  C08J13347   2.690   9.298  13.546
   208G11  C08I13348   2.733   9.310  13.412
   208G11  C08H13349   2.612   9.327  13.327
   208G11  C08G13350   2.494   9.302  13.413
   208G11  C08F13351   2.348   9.297  13.399
   208G11  C08E13352   2.280   9.349  13.283
   208G11  C05913353   2.340   9.430  13.181
   208G11  C05813354   2.260   9.483  13.074
   208G11  C05713355   2.309   9.560  12.965
   208G11  C05613356   2.450   9.589  12.973
   208G11  C05513357   2.519   9.587  13.088
   208G11  C05413358   2.656   9.592  13.054
   208G11  C05313359   2.670   9.586  12.909
   208G11  C05213360   2.781   9.564  12.825
   208G11  C05113361   2.907   9.532  12.891
   208G11  C05U13362   2.941   9.503  13.036
   208G11  C05T13363   2.859   9.486  13.149
   208G11  C06K13364   2.951   9.490  13.264
   208G11  H00J13365   2.903   9.499  13.360
   208G11  C06L13366   3.087   9.499  13.221
   208G11  H00I13367   3.174   9.507  13.285
   208G11  C05V13368   3.080   9.495  13.082
   208G11  C06J13369   3.187   9.497  12.994
   208G11  H00K13370   3.288   9.496  13.032
   208G11  C05X13371   3.161   9.490  12.854
   208G11  C06I13372   3.253   9.457  12.752
   208G11  H00L13373   3.354   9.450  12.790
   208G11  C04Z13374   3.234   9.448  12.614
   208G11  C06H13375   3.348   9.416  12.527
   208G11  H00H13376   3.448   9.395  12.562
   208G11  C04Y13377   3.317   9.396  12.386
   208G11  C06G13378   3.430   9.360  12.304
   208G11  O00913379   3.546   9.366  12.332
   208G11  O00813380   3.395   9.316  12.178
   208G11  C04P13381   3.267   9.311  12.129
   208G11  C04J13382   3.228   9.264  12.002
   208G11  C04Q13383   3.314   9.204  11.906
   208G11  H00E13384   3.420   9.203  11.925
   208G11  C04M13385   3.266   9.163  11.778
   208G11  C04R13386   3.337   9.100  11.672
   208G11  H00F13387   3.443   9.083  11.678
   208G11  C04S13388   3.273   9.071  11.556
   208G11  H00G13389   3.326   9.027  11.472
   208G11  O00713390   3.143   9.092  11.525
   208G11  C03V13391   3.073   9.156  11.630
   208G11  C03U13392   2.939   9.171  11.596
   208G11  O00613393   2.901   9.159  11.464
   208G11  C03F13394   2.769   9.152  11.438
   208G11  C03E13395   2.673   9.187  11.534
   208G11  C03D13396   2.716   9.222  11.659
   208G11  C03C13397   2.621   9.271  11.748
   208G11  C03B13398   2.487   9.262  11.710
   208G11  C03A13399   2.388   9.315  11.796
   208G11  C03913400   2.420   9.348  11.929
   208G11  C03813401   2.289   9.370  11.990
   208G11  C03713402   2.199   9.341  11.884
   208G11  C03613403   2.064   9.369  11.890
   208G11  C02R13404   1.962   9.349  11.808
   208G11  C03513405   1.852   9.385  11.887
   208G11  C03R13406   1.886   9.419  12.010
   208G11  C03S13407   1.811   9.377  12.121
   208G11  C04913408   1.866   9.393  12.245
   208G11  C04813409   2.005   9.410  12.253
   208G11  C03P13410   2.096   9.406  12.137
   208G11  C04713411   2.053   9.459  12.380
   208G11  C04613412   2.175   9.513  12.411
   208G11  C04513413   2.296   9.517  12.340
   208G11  C03T13414   2.322   9.467  12.210
   208G11  C04413415   2.455   9.484  12.187
   208G11  C04313416   2.513   9.559  12.300
   208G11  C04213417   2.646   9.518  12.323
   208G11  C04113418   2.678   9.452  12.196
   208G11  C04013419   2.810   9.417  12.151
   208G11  C03Z13420   2.858   9.353  12.032
   208G11  C04H13421   2.999   9.330  12.053
   208G11  C04G13422   3.038   9.379  12.174
   208G11  C03N13423   2.796   9.306  11.910
   208G11  C03Y13424   2.894   9.252  11.822
   208G11  C03X13425   3.039   9.242  11.846
   208G11  C04F13426   2.932   9.431  12.237
   208G11  C04E13427   2.951   9.471  12.374
   208G11  C04O13428   3.082   9.455  12.429
   208G11  C04D13429   2.855   9.514  12.471
   208G11  C04V13430   2.886   9.515  12.608
   208G11  C04W13431   3.010   9.499  12.663
   208G11  C04C13432   2.719   9.545  12.450
   208G11  C04L13433   2.667   9.585  12.583
   208G11  C04U13434   2.533   9.624  12.617
   208G11  C05Q13435   2.475   9.619  12.746
   208G11  C05P13436   2.336   9.605  12.736
   208G11  C04T13437   2.298   9.587  12.606
   208G11  C04B13438   2.417   9.601  12.532
   208G11  C03M13439   2.564   9.430  12.103
   208G11  C04A13440   2.414   9.563  12.396
   208G11  C05H13441   2.174   9.548  12.547
   208G11  C05G13442   2.048   9.514  12.601
   208G11  C05F13443   2.007   9.527  12.738
   208G11  C05E13444   1.903   9.441  12.788
   208G11  C05L13445   1.784   9.364  12.742
   208G11  C05K13446   1.750   9.362  12.605
   208G11  C05J13447   1.831   9.396  12.488
   208G11  C06613448   1.614   9.312  12.579
   208G11  C06513449   1.529   9.268  12.682
   208G11  C06413450   1.579   9.261  12.813
   208G11  C06N13451   1.401   9.217  12.650
   208G11  C06913452   1.355   9.210  12.523
   208G11  C06P13453   1.232   9.151  12.494
   208G11  C06R13454   1.187   9.127  12.366
   208G11  C06B13455   1.271   9.166  12.260
   208G11  C06S13456   1.235   9.137  12.130
   208G11  C02G13457   1.315   9.168  12.028
   208G11  C02F13458   1.282   9.133  11.897
   208G11  C02713459   1.163   9.064  11.870
   208G11  C02613460   1.132   9.027  11.741
   208G11  C00E13461   1.011   8.964  11.715
   208G11  C00D13462   0.988   8.913  11.589
   208G11  C00C13463   0.880   8.834  11.576
   208G11  C00B13464   0.794   8.788  11.674
   208G11  C01513465   0.816   8.844  11.798
   208G11  C07F13466   0.740   8.803  11.902
   208G11  C07E13467   0.770   8.845  12.034
   208G11  C06W13468   0.879   8.933  12.055
   208G11  C06V13469   0.951   8.980  11.947
   208G11  C06X13470   0.916   8.960  12.187
   208G11  C07B13471   0.840   8.914  12.292
   208G11  C07C13472   0.727   8.840  12.264
   208G11  C0FU13473   0.643   8.800  12.371
   208G11  C0F713474   0.542   8.709  12.353
   208G11  C0F613475   0.466   8.672  12.460
   208G11  C0F813476   0.359   8.589  12.439
   208G11  C0F913477   0.273   8.553  12.541
   208G11  C0FA13478   0.165   8.467  12.520
   208G11  C0FZ13479   0.152   8.411  12.399
   208G11  C0G013480   0.041   8.327  12.372
   208G11  C0GD13481  -0.047   8.296  12.473
   208G11  C0FC13482  -0.031   8.349  12.604
   208G11  C0GH13483  -0.117   8.309  12.710
   208G11  C0EY13484  -0.097   8.370  12.836
   208G11  C0EX13485  -0.178   8.336  12.946
   208G11  C0EW13486  -0.158   8.403  13.069
   208G11  C0FR13487  -0.230   8.354  13.188
   208G11  H01D13488  -0.213   8.386  13.290
   208G11  C0FS13489  -0.323   8.252  13.175
   208G11  H01C13490  -0.382   8.228  13.262
   208G11  C0GJ13491  -0.334   8.191  13.054
   208G11  H01N13492  -0.412   8.117  13.044
   208G11  C0EV13493  -0.056   8.489  13.084
   208G11  C0FT13494  -0.035   8.561  13.203
   208G11  H01E13495  -0.104   8.572  13.286
   208G11  C0EU13496   0.035   8.506  12.978
   208G11  C0ET13497   0.157   8.566  12.998
   208G11  C0EI13498   0.256   8.588  12.906
   208G11  C0F113499   0.219   8.558  12.775
   208G11  C0F013500   0.099   8.485  12.750
   208G11  C0EH13501   0.377   8.655  12.941
   208G11  C0EG13502   0.426   8.667  13.074
   208G11  C0EJ13503   0.455   8.697  12.833
   208G11  C0F313504   0.415   8.668  12.698
   208G11  C0EK13505   0.570   8.776  12.860
   208G11  C0EL13506   0.620   8.787  12.991
   208G11  C0EM13507   0.734   8.875  12.994
   208G11  C0EN13508   0.783   8.934  12.882
   208G11  C07I13509   0.906   8.989  12.903
   208G11  C07413510   0.996   9.027  12.803
   208G11  C07313511   1.119   9.070  12.837
   208G11  C07213512   1.195   9.124  12.730
   208G11  C07513513   0.949   9.008  12.680
   208G11  C07613514   0.826   8.942  12.652
   208G11  C07813515   0.789   8.909  12.523
   208G11  C07G13516   1.030   9.048  12.574
   208G11  C07013517   0.986   9.022  12.446
   208G11  C07Z13518   0.952   8.971  13.034
   208G11  C07713519   0.744   8.903  12.754
   208G11  C0EO13520   0.631   8.827  12.744
   208G11  C0F413521   0.598   8.796  12.613
   208G11  C0EQ13522   0.192   8.611  13.127
   208G11  C0FQ13523  -0.267   8.230  12.934
   208G11  C0GI13524  -0.277   8.175  12.806
   208G11  H01L13525  -0.346   8.093  12.791
   208G11  C0EZ13526   0.013   8.452  12.853
   208G11  C0GG13527  -0.215   8.216  12.690
   208G11  C0GF13528  -0.228   8.159  12.560
   208G11  H01M13529  -0.302   8.085  12.533
   208G11  C0GE13530  -0.154   8.208  12.455
   208G11  H01K13531  -0.157   8.166  12.356
   208G11  O00J13532   0.031   8.260  12.248
   208G11  C0GA13533   0.110   8.296  12.148
   208G11  C0G913534   0.101   8.220  12.032
   208G11  H01H13535   0.037   8.133  12.029
   208G11  C0G813536   0.195   8.242  11.928
   208G11  C0G713537   0.196   8.170  11.806
   208G11  H01I13538   0.145   8.075  11.797
   208G11  O00I13539   0.269   8.204  11.693
   208G11  C0G613540   0.365   8.302  11.714
   208G11  H01J13541   0.447   8.302  11.644
   208G11  C02D13542   0.367   8.385  11.830
   208G11  C02C13543   0.461   8.493  11.844
   208G11  C01713544   0.534   8.543  11.734
   208G11  C01613545   0.626   8.648  11.758
   208G11  O00113546   0.492   8.517  11.608
   208G11  C01813547   0.577   8.536  11.504
   208G11  C00913548   0.678   8.631  11.519
   208G11  C00813549   0.768   8.676  11.420
   208G11  C00713550   0.806   8.632  11.284
   208G11  C00613551   0.749   8.519  11.225
   208G11  C00513552   0.794   8.465  11.099
   208G11  C00413553   0.902   8.500  11.013
   208G11  C00313554   1.023   8.584  11.039
   208G11  C00213555   1.136   8.572  10.958
   208G11  C00P13556   1.254   8.651  10.975
   208G11  C00O13557   1.370   8.636  10.900
   208G11  C00N13558   1.489   8.712  10.921
   208G11  C01013559   1.609   8.685  10.849
   208G11  C01113560   1.723   8.757  10.874
   208G11  C01Q13561   1.835   8.732  10.800
   208G11  C01U13562   1.839   8.639  10.693
   208G11  C01213563   1.720   8.569  10.670
   208G11  H00013564   1.723   8.489  10.598
   208G11  C01V13565   1.956   8.626  10.627
   208G11  H00713566   1.977   8.540  10.566
   208G11  O00513567   2.069   8.706  10.635
   208G11  C01W13568   2.064   8.800  10.741
   208G11  C03113569   2.177   8.875  10.767
   208G11  C03213570   2.168   8.988  10.855
   208G11  H00A13571   2.246   9.055  10.886
   208G11  C03313572   2.052   9.007  10.929
   208G11  H00B13573   2.061   9.089  10.999
   208G11  C01O13574   1.955   8.900  10.931
   208G11  C01N13575   1.848   8.909  11.014
   208G11  C01M13576   1.851   8.987  11.135
   208G11  C01L13577   1.947   9.064  11.232
   208G11  C01K13578   1.863   9.135  11.319
   208G11  C01Y13579   1.899   9.182  11.445
   208G11  C02I13580   2.030   9.185  11.479
   208G11  C02N13581   2.063   9.244  11.603
   208G11  C02M13582   2.200   9.255  11.635
   208G11  C02L13583   2.299   9.208  11.548
   208G11  C02K13584   2.264   9.147  11.428
   208G11  C02U13585   2.369   9.099  11.345
   208G11  C02V13586   2.503   9.121  11.374
   208G11  C03H13587   2.599   9.090  11.278
   208G11  H00C13588   2.572   9.050  11.181
   208G11  C02W13589   2.335   8.997  11.254
   208G11  C02X13590   2.201   8.976  11.228
   208G11  C02Y13591   2.203   8.865  11.146
   208G11  H00813592   2.128   8.803  11.098
   208G11  C02Z13593   2.344   8.839  11.113
   208G11  O00413594   2.390   8.773  11.025
   208G11  O00313595   2.418   8.906  11.193
   208G11  C02J13596   2.128   9.128  11.391
   208G11  C01Z13597   1.790   9.209  11.528
   208G11  C02013598   1.658   9.175  11.493
   208G11  C01I13599   1.625   9.120  11.374
   208G11  C01H13600   1.500   9.071  11.338
   208G11  C00K13601   1.493   8.985  11.226
   208G11  C01S13602   1.605   8.957  11.149
   208G11  C01413603   1.609   8.868  11.048
   208G11  C00J13604   1.378   8.919  11.203
   208G11  C00I13605   1.268   8.934  11.290
   208G11  C00H13606   1.288   9.006  11.411
   208G11  C00G13607   1.192   9.001  11.507
   208G11  C00S13608   1.153   8.864  11.258
   208G11  C00T13609   1.059   8.874  11.359
   208G11  C00U13610   0.952   8.783  11.347
   208G11  C00R13611   1.147   8.768  11.151
   208G11  C00L13612   1.372   8.823  11.094
   208G11  C02813613   1.405   9.072  11.441
   208G11  C02313614   1.433   9.128  11.562
   208G11  C02413615   1.338   9.117  11.664
   208G11  C02113616   1.559   9.178  11.589
   208G11  C02213617   1.585   9.225  11.714
   208G11  C02H13618   1.487   9.223  11.815
   208G11  C03013619   1.525   9.255  11.947
   208G11  C03413620   1.648   9.303  11.968
   208G11  C02P13621   1.715   9.268  11.740
   208G11  C02B13622   1.816   9.265  11.650
   208G11  C01J13623   1.735   9.108  11.287
   208G11  C01X13624   2.091   9.054  11.270
   208G11  C01T13625   1.722   9.027  11.176
   208G11  H00913626   2.272   8.856  10.720
   208G11  C01P13627   1.950   8.806  10.827
   208G11  C01R13628   1.728   8.841  10.982
   208G11  C00Z13629   1.607   8.585  10.754
   208G11  O00013630   1.490   8.509  10.733
   208G11  C00M13631   1.489   8.805  11.019
   208G11  C00Y13632   1.376   8.539  10.802
   208G11  C01313633   1.260   8.469  10.774
   208G11  H00113634   1.266   8.402  10.690
   208G11  C00Q13635   1.258   8.747  11.075
   208G11  C00113636   1.138   8.485  10.848
   208G11  C00013637   1.015   8.419  10.812
   208G11  H00613638   1.009   8.348  10.730
   208G11  C00W13639   1.028   8.690  11.138
   208G11  C01G13640   0.903   8.429  10.894
   208G11  H00513641   0.812   8.382  10.859
   208G11  C01C13642   0.707   8.353  11.071
   208G11  H00213643   0.703   8.288  10.985
   208G11  C01B13644   0.609   8.342  11.178
   208G11  C01D13645   0.510   8.244  11.202
   208G11  H00313646   0.491   8.156  11.142
   208G11  C01E13647   0.435   8.271  11.315
   208G11  H00413648   0.362   8.195  11.338
   208G11  O00213649   0.444   8.377  11.405
   208G11  C01A13650   0.636   8.443  11.276
   208G11  C00V13651   0.925   8.697  11.241
   208G11  C01913652   0.558   8.453  11.392
   208G11  C02E13653   0.474   8.558  11.970
   208G11  C0FX13654   0.392   8.520  12.075
   208G11  C0FW13655   0.413   8.580  12.203
   208G11  C0GB13656   0.292   8.429  12.059
   208G11  C0G313657   0.572   8.655  11.989
   208G11  C07H13658   0.594   8.709  12.117
   208G11  C0GC13659   0.282   8.358  11.935
   208G11  C0G213660   0.210   8.395  12.165
   208G11  C0G113661   0.234   8.443  12.292
   208G11  C0FB13662   0.077   8.437  12.622
   208G11  C0F213663   0.299   8.598  12.672
   208G11  C0FY13664   0.335   8.539  12.314
   208G11  C0F513665   0.493   8.710  12.590
   208G11  C0FV13666   0.515   8.668  12.225
   208G11  C07913667   0.673   8.837  12.501
   208G11  C07A13668   0.870   8.952  12.420
   208G11  C06Y13669   1.033   9.034  12.208
   208G11  C07D13670   0.699   8.799  12.138
   208G11  C01F13671   0.646   8.698  11.884
   208G11  C00A13672   0.698   8.693  11.647
   208G11  C00X13673   0.862   8.777  11.452
   208G11  C00F13674   1.074   8.936  11.481
   208G11  C02913675   0.921   8.930  11.820
   208G11  C02513676   1.220   9.051  11.637
   208G11  C06U13677   1.074   9.042  11.971
   208G11  C02A13678   1.364   9.168  11.792
   208G11  C05Y13679   1.437   9.226  12.054
   208G11  C05Z13680   1.478   9.255  12.185
   208G11  C06013681   1.603   9.315  12.210
   208G11  C06213682   1.649   9.333  12.342
   208G11  C06T13683   1.112   9.072  12.103
   208G11  C06A13684   1.395   9.228  12.290
   208G11  C06Z13685   1.070   9.060  12.341
   208G11  C06Q13686   1.148   9.112  12.600
   208G11  C06813687   1.436   9.250  12.422
   208G11  C06713688   1.561   9.303  12.448
   208G11  C06313689   1.706   9.312  12.844
   208G11  C06C13690   1.757   9.289  12.972
   208G11  C06D13691   1.877   9.343  13.019
   208G11  C06E13692   1.940   9.323  13.138
   208G11  C07Q13693   1.879   9.237  13.223
   208G11  C07P13694   1.751   9.193  13.188
   208G11  C07T13695   1.679   9.122  13.282
   208G11  C07U13696   1.545   9.085  13.255
   208G11  C07V13697   1.473   9.025  13.358
   208G11  C08413698   1.539   8.984  13.474
   208G11  C08C13699   1.671   9.019  13.498
   208G11  C08B13700   1.731   8.977  13.613
   208G11  C08A13701   1.865   9.000  13.624
   208G11  C08913702   1.938   9.086  13.547
   208G11  C08813703   2.069   9.116  13.576
   208G11  C08713704   2.147   9.190  13.486
   208G11  C08613705   2.083   9.237  13.370
   208G11  C08X13706   2.133   9.072  13.694
   208G11  C08T13707   2.055   8.985  13.783
   208G11  C08D13708   1.876   9.131  13.431
   208G11  C08U13709   1.922   8.959  13.742
   208G11  C08V13710   1.854   8.880  13.834
   208G11  C0CY13711   1.717   8.863  13.827
   208G11  C0CX13712   1.658   8.791  13.923
   208G11  C0CW13713   1.524   8.765  13.902
   208G11  C0CV13714   1.462   8.806  13.786
   208G11  C0D413715   1.529   8.887  13.695
   208G11  C0CU13716   1.333   8.775  13.770
   208G11  C0CT13717   1.252   8.703  13.869
   208G11  C0CS13718   1.318   8.666  13.988
   208G11  C0D613719   1.273   8.829  13.662
   208G11  C0EC13720   1.334   8.899  13.560
   208G11  C07X13721   1.270   8.936  13.443
   208G11  C0DL13722   1.140   8.794  13.641
   208G11  C0DK13723   1.079   8.824  13.522
   208G11  C0DN13724   0.962   8.762  13.520
   208G11  C0D813725   1.058   8.718  13.730
   208G11  C08W13726   1.937   8.850  13.941
   208G11  C0CQ13727   1.872   8.787  14.057
   208G11  C09313728   1.662   8.914  13.714
   208G11  C09213729   1.466   8.924  13.574
   208G11  C08513730   1.743   9.092  13.404
   208G11  C07S13731   1.947   9.202  13.343
   208G11  C06F13732   2.071   9.363  13.163
   208G11  C07O13733   1.686   9.225  13.067
   208G11  C07N13734   1.557   9.182  13.036
   208G11  C05D13735   1.934   9.429  12.925
   208G11  C05C13736   2.054   9.494  12.962
   208G11  C05N13737   2.106   9.545  12.843
   208G11  C05M13738   1.965   9.457  12.495
   208G11  C05I13739   1.781   9.380  12.360
   208G11  C06113740   1.685   9.332  12.100
   208G11  C02Q13741   1.733   9.320  11.863
   208G11  C02O13742   1.953   9.285  11.682
   208G11  C03Q13743   2.023   9.410  12.019
   208G11  C03O13744   2.238   9.406  12.121
   208G11  C03L13745   2.552   9.368  11.970
   208G11  C02S13746   2.253   9.302  11.765
   208G11  C02T13747   2.438   9.220  11.584
   208G11  C03K13748   2.657   9.313  11.880
   208G11  C03I13749   2.540   9.176  11.497
   208G11  C03G13750   2.734   9.103  11.315
   208G11  H00D13751   2.820   9.093  11.249
   208G11  C03J13752   2.850   9.217  11.692
   208G11  C03W13753   3.129   9.192  11.753
   208G11  C04I13754   3.093   9.272  11.963
   208G11  C04K13755   3.165   9.361  12.216
   208G11  C04N13756   3.184   9.400  12.345
   208G11  C04X13757   3.108   9.477  12.564
   208G11  C05013758   3.024   9.505  12.807
   208G11  C05W13759   2.772   9.561  12.684
   208G11  C05S13760   2.715   9.499  13.147
   208G11  C05R13761   2.538   9.602  12.865
   208G11  C05O13762   2.244   9.580  12.843
   208G11  C05B13763   2.128   9.450  13.074
   208G11  C05A13764   2.477   9.475  13.174
   208G11  C07R13765   2.147   9.317  13.277
   208G11  C08N13766   2.278   9.229  13.508
   208G11  C08M13767   2.338   9.189  13.636
   208G11  C08L13768   2.479   9.209  13.648
   208G11  C09113769   2.604   9.424  13.219
   208G11  C09K13770   2.828   9.203  13.385
   208G11  H00M13771   2.845   9.158  13.288
   208G11  C08K13772   2.550   9.264  13.540
   208G11  C09J13773   2.876   9.155  13.519
   208G11  C09I13774   2.915   9.026  13.579
   208G11  C09L13775   3.000   8.933  13.528
   208G11  H00N13776   3.047   8.935  13.431
   208G11  C09Q13777   3.036   8.829  13.610
   208G11  H00O13778   3.092   8.750  13.564
   208G11  O00B13779   2.984   8.811  13.738
   208G11  C09G13780   2.884   8.899  13.784
   208G11  C09F13781   2.819   8.856  13.906
   208G11  O00A13782   2.871   8.739  13.956
   208G11  C09P13783   2.841   8.723  14.089
   208G11  H00P13784   2.923   8.703  14.156
   208G11  C09O13785   2.704   8.723  14.125
   208G11  C09D13786   2.643   8.841  14.077
   208G11  C09C13787   2.512   8.890  14.114
   208G11  C09N13788   2.404   8.834  14.194
   208G11  C09T13789   2.400   8.695  14.223
   208G11  C09S13790   2.519   8.625  14.265
   208G11  C0CP13791   2.471   8.533  14.357
   208G11  C0CN13792   2.335   8.533  14.372
   208G11  C0CO13793   2.283   8.423  14.447
   208G11  H01413794   2.177   8.407  14.445
   208G11  C0CZ13795   2.375   8.348  14.522
   208G11  H01513796   2.326   8.271  14.581
   208G11  C0D013797   2.519   8.366  14.525
   208G11  C0G513798   2.617   8.303  14.608
   208G11  H01F13799   2.589   8.239  14.691
   208G11  C0G413800   2.744   8.320  14.591
   208G11  H01G13801   2.816   8.269  14.654
   208G11  O00H13802   2.794   8.391  14.485
   208G11  C0D213803   2.707   8.465  14.412
   208G11  C09V13804   2.745   8.546  14.299
   208G11  H00Q13805   2.849   8.532  14.274
   208G11  C0D113806   2.569   8.459  14.432
   208G11  C09R13807   2.653   8.628  14.220
   208G11  C09H13808   2.861   9.011  13.709
   208G11  C09E13809   2.710   8.922  13.974
   208G11  C09B13810   2.457   9.006  14.063
   208G11  C08Z13811   2.533   9.159  13.770
   208G11  C08O13812   2.257   9.122  13.737
   208G11  C09A13813   2.326   9.027  14.099
   208G11  C08S13814   2.055   8.912  13.909
   208G11  C09913815   2.285   8.912  14.177
   208G11  C09U13816   2.288   8.646  14.293
   208G11  C0BO13817   1.857   8.604  14.490
   208G11  C0CL13818   1.944   8.752  14.171
   208G11  C0D313819   1.734   8.758  14.040
   208G11  C0D513820   1.456   8.699  14.004
   208G11  C0BR13821   1.657   8.592  14.352
   208G11  C0BQ13822   1.719   8.571  14.475
   208G11  C0BL13823   1.840   8.524  14.723
   208G11  C0AF13824   1.698   8.398  14.925
   208G11  C0BH13825   1.439   8.413  14.658
   208G11  C0BG13826   1.306   8.383  14.646
   208G11  C0BD13827   1.295   8.297  14.869
   208G11  C0AG13828   1.627   8.326  15.012
   208G11  C0AI13829   1.617   8.261  15.249
   208G11  C0AV13830   1.457   8.226  15.465
   208G11  C0BB13831   1.236   8.131  15.191
   208G11  O00C13832   1.228   8.196  15.546
   208G11  C0BC13833   1.104   8.122  15.200
   208G11  C0B913834   1.222   8.234  14.971
   208G11  O00E13835   0.887   8.254  14.843
   208G11  C0CA13836   0.819   8.266  14.732
   208G11  O00F13837   0.700   8.261  14.737
   208G11  C0BF13838   1.234   8.327  14.749
   208G11  C0C513839   0.892   8.315  14.619
   208G11  C0C413840   0.823   8.347  14.498
   208G11  H01113841   0.716   8.334  14.485
   208G11  C0C813842   1.240   8.415  14.531
   208G11  C0C213843   0.900   8.399  14.390
   208G11  C0C313844   0.845   8.429  14.267
   208G11  C0DY13845   0.709   8.410  14.237
   208G11  H01613846   0.630   8.363  14.294
   208G11  C0DX13847   0.697   8.463  14.102
   208G11  C0DW13848   0.587   8.417  14.029
   208G11  C0BY13849   1.253   8.503  14.305
   208G11  C0DB13850   0.913   8.493  14.165
   208G11  C0CC13851   1.248   8.601  14.085
   208G11  C0D713852   1.113   8.673  13.855
   208G11  C0DZ13853   0.829   8.509  14.053
   208G11  C0DM13854   0.939   8.704  13.652
   208G11  C0DQ13855   0.664   8.524  13.801
   208G11  C0DV13856   0.577   8.443  13.889
   208G11  C0E013857   0.467   8.342  14.068
   208G11  C0FO13858   0.147   8.398  13.927
   208G11  C0E313859   0.372   8.369  14.179
   208G11  H01713860   0.395   8.424  14.268
   208G11  C0GV13861   0.063   8.430  14.030
   208G11  C0ES13862   0.147   8.475  13.808
   208G11  C0GQ13863  -0.159   8.668  13.880
   208G11  C0FJ13864  -0.103   8.806  13.544
   208G11  C0ED13865   0.129   8.642  13.572
   208G11  C0ER13866   0.096   8.609  13.225
   208G11  C0EP13867   0.321   8.640  13.171
   208G11  C0E613868   0.387   8.587  13.546
   208G11  C0DE13869   0.672   8.656  13.456
   208G11  C0EA13870   0.550   8.728  13.097
   208G11  C0DF13871   0.781   8.688  13.375
   208G11  C08013872   0.833   8.905  13.093
   208G11  C0DO13873   0.889   8.769  13.409
   208G11  C0DJ13874   1.139   8.902  13.424
   208G11  C07K13875   1.090   9.001  13.070
   208G11  C07W13876   1.339   8.993  13.335
   208G11  C08313877   1.482   9.114  13.134
   208G11  C07J13878   1.170   9.060  12.964
   208G11  C06O13879   1.321   9.170  12.758
   208G11  C06M13880   1.501   9.203  12.911
   218G11  C07113881   4.793   6.387   8.205
   218G11  C07L13882   4.838   6.519   8.190
   218G11  C07M13883   4.923   6.563   8.089
   218G11  C07Y13884   4.967   6.699   8.086
   218G11  C08113885   4.934   6.799   8.186
   218G11  C08213886   4.991   6.931   8.174
   218G11  C0DI13887   4.974   7.050   8.261
   218G11  C0DH13888   4.894   7.070   8.374
   218G11  C0DG13889   4.919   7.206   8.421
   218G11  C0E913890   4.924   7.263   8.554
   218G11  C0E813891   5.026   7.371   8.543
   218G11  C0E713892   5.066   7.487   8.630
   218G11  C0EB13893   4.985   7.515   8.751
   218G11  C0EF13894   4.999   7.620   8.850
   218G11  C0EE13895   5.113   7.666   8.915
   218G11  C0FD13896   5.124   7.663   9.060
   218G11  C0FE13897   5.052   7.572   9.145
   218G11  H01B13898   4.979   7.502   9.106
   218G11  C0FF13899   5.062   7.579   9.281
   218G11  H01A13900   5.004   7.512   9.343
   218G11  C0FG13901   5.146   7.673   9.339
   218G11  H01813902   5.151   7.685   9.447
   218G11  C0FH13903   5.230   7.758   9.258
   218G11  C0FI13904   5.323   7.852   9.305
   218G11  H01913905   5.340   7.855   9.412
   218G11  O00K13906   5.398   7.932   9.228
   218G11  C0FL13907   5.390   7.913   9.091
   218G11  C0FK13908   5.303   7.823   9.031
   218G11  C0FM13909   5.303   7.802   8.890
   218G11  C0FN13910   5.380   7.888   8.809
   218G11  C0FP13911   5.468   7.976   8.873
   218G11  C0GO13912   5.551   8.058   8.805
   218G11  C0GN13913   5.645   8.147   8.855
   218G11  C0GR13914   5.654   8.145   8.996
   218G11  C0GS13915   5.751   8.227   9.059
   218G11  H01Q13916   5.749   8.246   9.166
   218G11  C0GT13917   5.836   8.309   8.977
   218G11  H01O13918   5.902   8.379   9.026
   218G11  C0GU13919   5.832   8.294   8.836
   218G11  H01P13920   5.902   8.359   8.787
   218G11  O00L13921   5.569   8.067   9.069
   218G11  C0GM13922   5.735   8.211   8.769
   218G11  C0GL13923   5.724   8.193   8.623
   218G11  H01R13924   5.789   8.250   8.557
   218G11  C0GK13925   5.618   8.115   8.577
   218G11  C0GP13926   5.573   8.067   8.448
   218G11  C0E213927   5.435   8.026   8.465
   218G11  C0E113928   5.397   7.947   8.357
   218G11  C0DU13929   5.338   7.819   8.374
   218G11  C0DT13930   5.278   7.759   8.479
   218G11  C0E413931   5.294   7.785   8.608
   218G11  C0E513932   5.219   7.701   8.688
   218G11  C0DS13933   5.230   7.628   8.479
   218G11  C0DR13934   5.243   7.558   8.361
   218G11  C0DD13935   5.197   7.429   8.328
   218G11  C0DC13936   5.267   7.395   8.202
   218G11  C0DP13937   5.362   7.502   8.159
   218G11  C0DA13938   5.465   7.493   8.056
   218G11  C0D913939   5.513   7.384   7.963
   218G11  C0CR13940   5.624   7.403   7.873
   218G11  C0C013941   5.693   7.519   7.860
   218G11  C0BZ13942   5.808   7.544   7.786
   218G11  C0C113943   5.880   7.663   7.802
   218G11  C0C713944   5.999   7.684   7.729
   218G11  C0C613945   6.087   7.793   7.751
   218G11  C0C913946   6.190   7.820   7.665
   218G11  C0B813947   6.267   7.936   7.680
   218G11  C0B713948   6.363   7.975   7.582
   218G11  C0B613949   6.464   8.075   7.576
   218G11  C0B513950   6.532   8.118   7.702
   218G11  H00Z13951   6.505   8.097   7.804
   218G11  C0B413952   6.664   8.159   7.655
   218G11  H01013953   6.757   8.174   7.708
   218G11  C0B313954   6.666   8.160   7.511
   218G11  C0AP13955   6.770   8.096   7.421
   218G11  C0AQ13956   6.692   8.016   7.339
   218G11  C0AR13957   6.750   7.900   7.285
   218G11  C0AS13958   6.662   7.802   7.259
   218G11  C0AT13959   6.536   7.791   7.306
   218G11  C0BA13960   6.485   7.900   7.375
   218G11  C0AU13961   6.475   7.665   7.321
   218G11  C0BE13962   6.359   7.651   7.388
   218G11  C0BI13963   6.297   7.529   7.391
   218G11  C0BJ13964   6.355   7.418   7.326
   218G11  C0BK13965   6.295   7.293   7.326
   218G11  C0BW13966   6.174   7.279   7.396
   218G11  C0BV13967   6.120   7.385   7.468
   218G11  C0BU13968   6.003   7.365   7.538
   218G11  C0BX13969   5.956   7.466   7.621
   218G11  C0BT13970   5.933   7.245   7.530
   218G11  C0CD13971   5.817   7.227   7.601
   218G11  C0CB13972   5.777   7.327   7.695
   218G11  C0CE13973   5.755   7.102   7.599
   218G11  C0CK13974   5.796   7.003   7.505
   218G11  C0BS13975   5.908   7.024   7.426
   218G11  C0CJ13976   5.954   6.930   7.338
   218G11  C0BP13977   6.079   6.941   7.280
   218G11  C0CI13978   6.127   6.843   7.189
   218G11  C0CH13979   6.270   6.852   7.160
   218G11  H01213980   6.311   6.756   7.133
   218G11  C0BN13981   6.345   6.965   7.181
   218G11  C0CG13982   6.471   6.976   7.129
   218G11  C0CF13983   6.531   6.865   7.065
   218G11  H01313984   6.489   6.767   7.049
   218G11  O00G13985   6.656   6.875   7.011
   218G11  C0AA13986   6.716   6.999   7.012
   218G11  C0A913987   6.846   7.001   6.960
   218G11  H00U13988   6.876   6.912   6.907
   218G11  C0A813989   6.926   7.110   6.973
   218G11  H00V13990   7.021   7.087   6.926
   218G11  C0A713991   6.880   7.229   7.044
   218G11  C0A613992   6.740   7.227   7.091
   218G11  C0A513993   6.670   7.339   7.143
   218G11  C0A413994   6.730   7.470   7.154
   218G11  C0A313995   6.865   7.530   7.142
   218G11  C0A213996   6.985   7.454   7.143
   218G11  C0A113997   7.113   7.519   7.143
   218G11  C0A013998   7.173   7.650   7.173
   218G11  C09Z13999   7.310   7.661   7.150
   218G11  C09Y14000   7.378   7.776   7.196
   218G11  H00Y14001   7.484   7.786   7.178
   218G11  C09X14002   7.306   7.887   7.249
   218G11  C09W14003   7.381   8.007   7.287
   218G11  H00R14004   7.487   8.017   7.270
   218G11  C0AX14005   7.316   8.112   7.342
   218G11  H00S14006   7.366   8.206   7.363
   218G11  C0AW14007   7.181   8.104   7.353
   218G11  H00T14008   7.128   8.183   7.405
   218G11  C0AN14009   7.105   7.989   7.324
   218G11  C0AO14010   6.964   7.983   7.350
   218G11  C0AM14011   7.173   7.876   7.266
   218G11  C0B214012   7.396   7.566   7.083
   218G11  O00D14013   7.516   7.573   7.061
   218G11  C0B114014   7.334   7.441   7.049
   218G11  H00W14015   7.390   7.367   6.992
   218G11  C0AL14016   7.099   7.763   7.221
   218G11  C0AK14017   6.956   7.771   7.228
   218G11  C0B014018   7.197   7.426   7.074
   218G11  C0AZ14019   7.122   7.311   7.036
   218G11  H00X14020   7.165   7.225   6.987
   218G11  C0AJ14021   6.861   7.664   7.191
   218G11  C0AH14022   6.649   7.575   7.192
   218G11  C0AE14023   6.540   7.327   7.198
   218G11  C0AD14024   6.475   7.205   7.193
   218G11  C0AY14025   6.987   7.323   7.074
   218G11  C0AB14026   6.666   7.109   7.082
   218G11  C0AC14027   6.539   7.098   7.136
   218G11  C0BM14028   6.283   7.068   7.250
   218G11  C0CM14029   6.041   6.750   7.132
   218G11  C09M14030   5.917   6.723   7.197
   218G11  C09814031   5.837   6.617   7.142
   218G11  C08R14032   5.729   6.532   7.203
   218G11  C08Q14033   5.661   6.442   7.115
   218G11  C08P14034   5.602   6.313   7.130
   218G11  C08Y14035   5.621   6.219   7.031
   218G11  C09714036   5.725   6.241   6.939
   218G11  C09614037   5.795   6.127   6.911
   218G11  C09014038   5.701   6.025   6.947
   218G11  C09514039   5.730   5.887   6.947
   218G11  C09414040   5.636   5.784   6.980
   218G11  C08J14041   5.521   5.785   7.072
   218G11  C08I14042   5.528   5.663   7.146
   218G11  C08H14043   5.464   5.692   7.279
   218G11  C08G14044   5.442   5.837   7.288
   218G11  C08F14045   5.372   5.940   7.364
   218G11  C08E14046   5.260   5.901   7.450
   218G11  C05914047   5.210   5.771   7.466
   218G11  C05814048   5.094   5.747   7.548
   218G11  C05714049   5.045   5.621   7.582
   218G11  C05614050   5.101   5.513   7.509
   218G11  C05514051   5.182   5.531   7.404
   218G11  C05414052   5.243   5.407   7.378
   218G11  C05314053   5.200   5.313   7.483
   218G11  C05214054   5.256   5.185   7.525
   218G11  C05114055   5.372   5.132   7.456
   218G11  C05U14056   5.456   5.199   7.354
   218G11  C05T14057   5.462   5.335   7.302
   218G11  C06K14058   5.522   5.325   7.169
   218G11  H00J14059   5.497   5.399   7.095
   218G11  C06L14060   5.584   5.195   7.160
   218G11  H00I14061   5.641   5.156   7.077
   218G11  C05V14062   5.539   5.121   7.273
   218G11  C06J14063   5.565   4.991   7.303
   218G11  H00K14064   5.646   4.940   7.254
   218G11  C05X14065   5.515   4.927   7.415
   218G11  C06I14066   5.552   4.801   7.463
   218G11  H00L14067   5.631   4.757   7.404
   218G11  C04Z14068   5.503   4.738   7.577
   218G11  C06H14069   5.568   4.624   7.627
   218G11  H00H14070   5.651   4.576   7.577
   218G11  C04Y14071   5.521   4.571   7.753
   218G11  C06G14072   5.586   4.456   7.810
   218G11  O00914073   5.678   4.393   7.750
   218G11  O00814074   5.550   4.413   7.938
   218G11  C04P14075   5.452   4.480   8.003
   218G11  C04J14076   5.415   4.443   8.137
   218G11  C04Q14077   5.479   4.355   8.220
   218G11  H00E14078   5.563   4.298   8.182
   218G11  C04M14079   5.447   4.331   8.354
   218G11  C04R14080   5.516   4.243   8.442
   218G11  H00F14081   5.603   4.187   8.411
   218G11  C04S14082   5.472   4.225   8.567
   218G11  H00G14083   5.529   4.155   8.626
   218G11  O00714084   5.353   4.278   8.616
   218G11  C03V14085   5.288   4.364   8.531
   218G11  C03U14086   5.173   4.428   8.578
   218G11  O00614087   5.128   4.394   8.702
   218G11  C03F14088   5.023   4.463   8.757
   218G11  C03E14089   4.967   4.577   8.695
   218G11  C03D14090   5.003   4.606   8.562
   218G11  C03C14091   4.947   4.714   8.498
   218G11  C03B14092   4.854   4.783   8.575
   218G11  C03A14093   4.813   4.907   8.517
   218G11  C03914094   4.836   4.943   8.384
   218G11  C03814095   4.763   5.072   8.379
   218G11  C03714096   4.688   5.079   8.499
   218G11  C03614097   4.621   5.190   8.525
   218G11  C02R14098   4.553   5.233   8.640
   218G11  C03514099   4.519   5.361   8.617
   218G11  C03R14100   4.566   5.408   8.498
   218G11  C03S14101   4.599   5.538   8.473
   218G11  C04914102   4.666   5.560   8.358
   218G11  C04814103   4.720   5.450   8.288
   218G11  C03P14104   4.703   5.309   8.325
   218G11  C04714105   4.769   5.487   8.164
   218G11  C04614106   4.820   5.401   8.066
   218G11  C04514107   4.830   5.259   8.064
   218G11  C03T14108   4.804   5.159   8.160
   218G11  C04414109   4.856   5.040   8.104
   218G11  C04314110   4.887   5.058   7.966
   218G11  C04214111   5.001   4.981   7.930
   218G11  C04114112   5.013   4.891   8.044
   218G11  C04014113   5.093   4.771   8.051
   218G11  C03Z14114   5.126   4.687   8.170
   218G11  C04H14115   5.233   4.613   8.129
   218G11  C04G14116   5.265   4.639   7.993
   218G11  C03N14117   5.081   4.668   8.305
   218G11  C03Y14118   5.154   4.568   8.380
   218G11  C03X14119   5.264   4.497   8.328
   218G11  C04F14120   5.192   4.740   7.948
   218G11  C04E14121   5.229   4.797   7.822
   218G11  C04O14122   5.341   4.734   7.754
   218G11  C04D14123   5.179   4.913   7.760
   218G11  C04V14124   5.246   4.978   7.653
   218G11  C04W14125   5.346   4.920   7.584
   218G11  C04C14126   5.079   4.999   7.805
   218G11  C04L14127   5.086   5.114   7.720
   218G11  C04U14128   5.006   5.234   7.729
   218G11  C05Q14129   5.022   5.350   7.662
   218G11  C05P14130   4.966   5.456   7.727
   218G11  C04T14131   4.907   5.408   7.843
   218G11  C04B14132   4.927   5.271   7.841
   218G11  C03M14133   4.925   4.917   8.155
   218G11  C04A14134   4.884   5.199   7.950
   218G11  C05H14135   4.854   5.476   7.957
   218G11  C05G14136   4.829   5.614   7.980
   218G11  C05F14137   4.835   5.713   7.886
   218G11  C05E14138   4.841   5.853   7.922
   218G11  C05L14139   4.802   5.932   8.033
   218G11  C05K14140   4.751   5.883   8.155
   218G11  C05J14141   4.739   5.737   8.194
   218G11  C06614142   4.707   5.975   8.255
   218G11  C06514143   4.737   6.112   8.237
   218G11  C06414144   4.802   6.159   8.121
   218G11  C06N14145   4.701   6.205   8.337
   218G11  C06914146   4.631   6.162   8.453
   218G11  C06P14147   4.595   6.256   8.552
   218G11  C06R14148   4.535   6.211   8.670
   218G11  C06B14149   4.514   6.078   8.693
   218G11  C06S14150   4.454   6.044   8.812
   218G11  C02G14151   4.428   5.911   8.836
   218G11  C02F14152   4.380   5.864   8.958
   218G11  C02714153   4.356   5.952   9.057
   218G11  C02614154   4.307   5.915   9.180
   218G11  C00E14155   4.281   6.008   9.276
   218G11  C00D14156   4.251   5.958   9.403
   218G11  C00C14157   4.248   6.053   9.506
   218G11  C00B14158   4.262   6.183   9.492
   218G11  C01514159   4.295   6.225   9.361
   218G11  C07F14160   4.322   6.359   9.342
   218G11  C07E14161   4.357   6.407   9.220
   218G11  C06W14162   4.371   6.322   9.111
   218G11  C06V14163   4.354   6.184   9.134
   218G11  C06X14164   4.425   6.364   8.992
   218G11  C07B14165   4.455   6.500   8.974
   218G11  C07C14166   4.428   6.587   9.078
   218G11  C0FU14167   4.468   6.716   9.056
   218G11  C0F714168   4.442   6.805   9.157
   218G11  C0F614169   4.482   6.938   9.133
   218G11  C0F814170   4.452   7.032   9.230
   218G11  C0F914171   4.483   7.168   9.206
   218G11  C0FA14172   4.444   7.261   9.299
   218G11  C0FZ14173   4.383   7.218   9.420
   218G11  C0G014174   4.340   7.312   9.511
   218G11  C0GD14175   4.337   7.449   9.482
   218G11  C0FC14176   4.406   7.493   9.365
   218G11  C0GH14177   4.427   7.628   9.344
   218G11  C0EY14178   4.509   7.665   9.237
   218G11  C0EX14179   4.545   7.802   9.224
   218G11  C0EW14180   4.649   7.832   9.136
   218G11  C0FR14181   4.693   7.969   9.114
   218G11  H01D14182   4.764   7.992   9.036
   218G11  C0FS14183   4.624   8.069   9.177
   218G11  H01C14184   4.660   8.167   9.148
   218G11  C0GJ14185   4.520   8.040   9.266
   218G11  H01N14186   4.472   8.117   9.325
   218G11  C0EV14187   4.708   7.730   9.062
   218G11  C0FT14188   4.830   7.751   8.993
   218G11  H01E14189   4.900   7.830   9.011
   218G11  C0EU14190   4.648   7.605   9.052
   218G11  C0ET14191   4.689   7.512   8.959
   218G11  C0EI14192   4.661   7.374   8.965
   218G11  C0F114193   4.578   7.339   9.072
   218G11  C0F014194   4.532   7.435   9.166
   218G11  C0EH14195   4.715   7.277   8.877
   218G11  C0EG14196   4.810   7.310   8.773
   218G11  C0EJ14197   4.673   7.146   8.886
   218G11  C0F314198   4.593   7.111   8.999
   218G11  C0EK14199   4.696   7.055   8.785
   218G11  C0EL14200   4.775   7.092   8.667
   218G11  C0EM14201   4.767   6.991   8.564
   218G11  C0EN14202   4.707   6.872   8.592
   218G11  C07I14203   4.730   6.783   8.490
   218G11  C07414204   4.698   6.645   8.504
   218G11  C07314205   4.732   6.564   8.400
   218G11  C07214206   4.689   6.428   8.414
   218G11  C07514207   4.631   6.610   8.620
   218G11  C07614208   4.615   6.699   8.723
   218G11  C07814209   4.554   6.663   8.840
   218G11  C07G14210   4.600   6.479   8.633
   218G11  C07014211   4.540   6.442   8.752
   218G11  C07Z14212   4.796   6.838   8.384
   218G11  C07714213   4.647   6.832   8.707
   218G11  C0EO14214   4.633   6.927   8.803
   218G11  C0F414215   4.568   6.889   8.916
   218G11  C0EQ14216   4.797   7.541   8.875
   218G11  C0FQ14217   4.482   7.907   9.289
   218G11  C0GI14218   4.395   7.863   9.382
   218G11  H01L14219   4.346   7.938   9.443
   218G11  C0EZ14220   4.562   7.571   9.150
   218G11  C0GG14221   4.368   7.729   9.419
   218G11  C0GF14222   4.295   7.686   9.530
   218G11  H01M14223   4.248   7.758   9.595
   218G11  C0GE14224   4.292   7.552   9.565
   218G11  H01K14225   4.242   7.535   9.659
   218G11  O00J14226   4.296   7.270   9.637
   218G11  C0GA14227   4.267   7.139   9.662
   218G11  C0G914228   4.206   7.093   9.778
   218G11  H01H14229   4.167   7.163   9.850
   218G11  C0G814230   4.207   6.955   9.822
   218G11  C0G714231   4.165   6.905   9.951
   218G11  H01I14232   4.125   6.976  10.022
   218G11  O00I14233   4.155   6.774   9.984
   218G11  C0G614234   4.201   6.685   9.891
   218G11  H01J14235   4.205   6.584   9.929
   218G11  C02D14236   4.250   6.727   9.764
   218G11  C02C14237   4.293   6.632   9.668
   218G11  C01714238   4.303   6.492   9.694
   218G11  C01614239   4.304   6.401   9.578
   218G11  O00114240   4.334   6.443   9.819
   218G11  C01814241   4.311   6.306   9.848
   218G11  C00914242   4.282   6.214   9.742
   218G11  C00814243   4.252   6.073   9.753
   218G11  C00714244   4.252   5.971   9.862
   218G11  C00614245   4.300   6.008   9.991
   218G11  C00514246   4.321   5.916  10.097
   218G11  C00414247   4.303   5.773  10.094
   218G11  C00314248   4.302   5.674   9.985
   218G11  C00214249   4.320   5.537  10.015
   218G11  C00P14250   4.335   5.442   9.913
   218G11  C00O14251   4.383   5.310   9.940
   218G11  C00N14252   4.421   5.223   9.839
   218G11  C01014253   4.477   5.094   9.864
   218G11  C01114254   4.528   5.015   9.761
   218G11  C01Q14255   4.594   4.893   9.791
   218G11  C01U14256   4.595   4.843   9.923
   218G11  C01214257   4.535   4.923  10.028
   218G11  H00014258   4.529   4.890  10.131
   218G11  C01V14259   4.669   4.719   9.934
   218G11  H00714260   4.670   4.669  10.030
   218G11  O00514261   4.732   4.653   9.835
   218G11  C01W14262   4.731   4.714   9.717
   218G11  C03114263   4.801   4.649   9.614
   218G11  C03214264   4.804   4.694   9.481
   218G11  H00A14265   4.854   4.639   9.402
   218G11  C03314266   4.719   4.804   9.458
   218G11  H00B14267   4.726   4.846   9.358
   218G11  C01O14268   4.645   4.871   9.554
   218G11  C01N14269   4.561   4.971   9.521
   218G11  C01M14270   4.528   5.003   9.386
   218G11  C01L14271   4.548   4.964   9.236
   218G11  C01K14272   4.505   5.080   9.161
   218G11  C01Y14273   4.526   5.111   9.028
   218G11  C02I14274   4.588   5.015   8.943
   218G11  C02N14275   4.605   5.049   8.808
   218G11  C02M14276   4.682   4.955   8.729
   218G11  C02L14277   4.735   4.842   8.789
   218G11  C02K14278   4.703   4.807   8.920
   218G11  C02U14279   4.747   4.686   8.968
   218G11  C02V14280   4.836   4.611   8.895
   218G11  C03H14281   4.895   4.500   8.951
   218G11  H00C14282   4.882   4.470   9.054
   218G11  C02W14283   4.690   4.636   9.084
   218G11  C02X14284   4.615   4.722   9.163
   218G11  C02Y14285   4.566   4.639   9.265
   218G11  H00814286   4.496   4.663   9.343
   218G11  C02Z14287   4.622   4.498   9.242
   218G11  O00414288   4.617   4.399   9.309
   218G11  O00314289   4.690   4.511   9.128
   218G11  C02J14290   4.625   4.895   9.006
   218G11  C01Z14291   4.480   5.236   8.996
   218G11  C02014292   4.420   5.326   9.083
   218G11  C01I14293   4.408   5.295   9.213
   218G11  C01H14294   4.372   5.382   9.314
   218G11  C00K14295   4.379   5.340   9.447
   218G11  C01S14296   4.428   5.216   9.483
   218G11  C01414297   4.446   5.173   9.607
   218G11  C00J14298   4.342   5.430   9.546
   218G11  C00I14299   4.301   5.555   9.507
   218G11  C00H14300   4.301   5.596   9.371
   218G11  C00G14301   4.282   5.729   9.336
   218G11  C00S14302   4.274   5.644   9.606
   218G11  C00T14303   4.243   5.770   9.566
   218G11  C00U14304   4.229   5.864   9.670
   218G11  C00R14305   4.283   5.607   9.745
   218G11  C00L14306   4.348   5.389   9.679
   218G11  C02814307   4.342   5.510   9.277
   218G11  C02314308   4.362   5.554   9.147
   218G11  C02414309   4.342   5.686   9.111
   218G11  C02114310   4.398   5.459   9.052
   218G11  C02214311   4.419   5.500   8.923
   218G11  C02H14312   4.415   5.637   8.895
   218G11  C03014313   4.451   5.684   8.768
   218G11  C03414314   4.489   5.589   8.676
   218G11  C02P14315   4.464   5.408   8.834
   218G11  C02B14316   4.493   5.270   8.868
   218G11  C01J14317   4.450   5.171   9.248
   218G11  C01X14318   4.591   4.862   9.144
   218G11  C01T14319   4.459   5.130   9.377
   218G11  H00914320   4.853   4.557   9.638
   218G11  C01P14321   4.655   4.832   9.690
   218G11  C01R14322   4.508   5.051   9.629
   218G11  C00Z14323   4.484   5.049   9.998
   218G11  O00014324   4.444   5.136  10.102
   218G11  C00M14325   4.404   5.263   9.707
   218G11  C00Y14326   4.398   5.266  10.069
   218G11  C01314327   4.363   5.360  10.171
   218G11  H00114328   4.378   5.337  10.275
   218G11  C00Q14329   4.316   5.477   9.779
   218G11  C00114330   4.325   5.496  10.150
   218G11  C00014331   4.296   5.587  10.246
   218G11  H00614332   4.278   5.556  10.348
   218G11  C00W14333   4.278   5.703   9.847
   218G11  C01G14334   4.278   5.721  10.222
   218G11  H00514335   4.242   5.782  10.303
   218G11  C01C14336   4.350   5.991  10.216
   218G11  H00214337   4.384   5.956  10.313
   218G11  C01B14338   4.357   6.126  10.181
   218G11  C01D14339   4.390   6.245  10.267
   218G11  H00314340   4.411   6.235  10.372
   218G11  C01E14341   4.386   6.362  10.201
   218G11  H00414342   4.412   6.451  10.257
   218G11  O00214343   4.361   6.377  10.066
   218G11  C01A14344   4.328   6.137  10.047
   218G11  C00V14345   4.253   5.840   9.810
   218G11  C01914346   4.329   6.269   9.986
   218G11  C02E14347   4.321   6.676   9.534
   218G11  C0FX14348   4.331   6.812   9.507
   218G11  C0FW14349   4.374   6.856   9.381
   218G11  C0GB14350   4.290   6.906   9.600
   218G11  C0G314351   4.337   6.585   9.431
   218G11  C07H14352   4.368   6.632   9.303
   218G11  C0GC14353   4.245   6.863   9.727
   218G11  C0G214354   4.306   7.040   9.567
   218G11  C0G114355   4.365   7.084   9.449
   218G11  C0FB14356   4.458   7.398   9.277
   218G11  C0F214357   4.552   7.206   9.092
   218G11  C0FY14358   4.394   6.992   9.348
   218G11  C0F514359   4.546   6.977   9.015
   218G11  C0FV14360   4.395   6.767   9.281
   218G11  C07914361   4.533   6.753   8.937
   218G11  C07A14362   4.514   6.534   8.855
   218G11  C06Y14363   4.443   6.271   8.888
   218G11  C07D14364   4.380   6.540   9.200
   218G11  C01F14365   4.316   6.450   9.450
   218G11  C00A14366   4.281   6.263   9.605
   218G11  C00X14367   4.237   6.002   9.638
   218G11  C00F14368   4.261   5.823   9.441
   218G11  C02914369   4.304   6.139   9.256
   218G11  C02514370   4.306   5.779   9.209
   218G11  C06U14371   4.378   6.086   9.034
   218G11  C02A14372   4.375   5.729   8.986
   218G11  C05Y14373   4.469   5.820   8.741
   218G11  C05Z14374   4.527   5.859   8.620
   218G11  C06014375   4.566   5.765   8.525
   218G11  C06214376   4.631   5.796   8.402
   218G11  C06T14377   4.423   6.134   8.908
   218G11  C06A14378   4.552   5.987   8.594
   218G11  C06Z14379   4.505   6.307   8.770
   218G11  C06Q14380   4.625   6.390   8.531
   218G11  C06814381   4.607   6.028   8.474
   218G11  C06714382   4.648   5.934   8.378
   218G11  C06314383   4.837   6.071   8.021
   218G11  C06C14384   4.917   6.122   7.911
   218G11  C06D14385   4.956   6.042   7.814
   218G11  C06E14386   5.045   6.074   7.709
   218G11  C07Q14387   5.098   6.199   7.706
   218G11  C07P14388   5.046   6.291   7.797
   218G11  C07T14389   5.086   6.421   7.794
   218G11  C07U14390   5.048   6.514   7.891
   218G11  C07V14391   5.105   6.643   7.894
   218G11  C08414392   5.208   6.673   7.803
   218G11  C08C14393   5.253   6.575   7.715
   218G11  C08B14394   5.363   6.608   7.641
   218G11  C08A14395   5.404   6.511   7.548
   218G11  C08914396   5.346   6.388   7.527
   218G11  C08814397   5.398   6.295   7.437
   218G11  C08714398   5.349   6.164   7.433
   218G11  C08614399   5.242   6.131   7.520
   218G11  C08X14400   5.505   6.333   7.350
   218G11  C08T14401   5.571   6.460   7.376
   218G11  C08D14402   5.238   6.355   7.614
   218G11  C08U14403   5.517   6.540   7.478
   218G11  C08V14404   5.591   6.655   7.495
   218G11  C0CY14405   5.548   6.752   7.581
   218G11  C0CX14406   5.617   6.864   7.578
   218G11  C0CW14407   5.573   6.959   7.674
   218G11  C0CV14408   5.468   6.937   7.758
   218G11  C0D414409   5.393   6.819   7.742
   218G11  C0CU14410   5.423   7.038   7.840
   218G11  C0CT14411   5.489   7.160   7.849
   218G11  C0CS14412   5.595   7.189   7.764
   218G11  C0D614413   5.319   7.002   7.913
   218G11  C0EC14414   5.245   6.887   7.907
   218G11  C07X14415   5.126   6.865   7.981
   218G11  C0DL14416   5.268   7.101   7.994
   218G11  C0DK14417   5.154   7.082   8.071
   218G11  C0DN14418   5.145   7.185   8.152
   218G11  C0D814419   5.325   7.226   8.020
   218G11  C08W14420   5.694   6.661   7.402
   218G11  C0CQ14421   5.762   6.791   7.392
   218G11  C09314422   5.434   6.722   7.655
   218G11  C09214423   5.275   6.795   7.818
   218G11  C08514424   5.190   6.453   7.706
   218G11  C07S14425   5.188   6.230   7.608
   218G11  C06F14426   5.090   5.978   7.614
   218G11  C07O14427   4.963   6.252   7.907
   218G11  C07N14428   4.921   6.343   8.002
   218G11  C05D14429   4.911   5.913   7.815
   218G11  C05C14430   4.945   5.827   7.717
   218G11  C05N14431   4.913   5.702   7.760
   218G11  C05M14432   4.779   5.623   8.114
   218G11  C05I14433   4.676   5.696   8.313
   218G11  C06114434   4.551   5.633   8.555
   218G11  C02Q14435   4.488   5.452   8.710
   218G11  C02O14436   4.546   5.177   8.771
   218G11  C03Q14437   4.625   5.301   8.439
   218G11  C03O14438   4.760   5.182   8.284
   218G11  C03L14439   4.916   4.862   8.295
   218G11  C02S14440   4.715   4.982   8.592
   218G11  C02T14441   4.822   4.763   8.713
   218G11  C03K14442   4.982   4.748   8.362
   218G11  C03I14443   4.876   4.652   8.765
   218G11  C03G14444   4.979   4.418   8.881
   218G11  H00D14445   5.031   4.330   8.917
   218G11  C03J14446   5.107   4.531   8.502
   218G11  C03W14447   5.333   4.404   8.405
   218G11  C04I14448   5.307   4.513   8.201
   218G11  C04K14449   5.377   4.578   7.937
   218G11  C04N14450   5.411   4.629   7.816
   218G11  C04X14451   5.393   4.797   7.636
   218G11  C05014452   5.411   4.995   7.485
   218G11  C05W14453   5.192   5.100   7.622
   218G11  C05S14454   5.373   5.445   7.341
   218G11  C05R14455   5.100   5.381   7.545
   218G11  C05O14456   4.967   5.593   7.693
   218G11  C05B14457   5.039   5.853   7.617
   218G11  C05A14458   5.261   5.645   7.409
   218G11  C07R14459   5.200   6.002   7.526
   218G11  C08N14460   5.410   6.073   7.349
   218G11  C08M14461   5.501   6.120   7.254
   218G11  C08L14462   5.537   6.031   7.152
   218G11  C09114463   5.379   5.596   7.343
   218G11  C09K14464   5.653   5.600   7.118
   218G11  H00M14465   5.706   5.529   7.181
   218G11  C08K14466   5.503   5.892   7.166
   218G11  C09J14467   5.702   5.659   6.994
   218G11  C09I14468   5.834   5.681   6.939
   218G11  C09L14469   5.924   5.588   6.882
   218G11  H00N14470   5.909   5.482   6.897
   218G11  C09Q14471   6.027   5.643   6.812
   218G11  H00O14472   6.095   5.575   6.764
   218G11  O00B14473   6.054   5.780   6.795
   218G11  C09G14474   5.972   5.873   6.852
   218G11  C09F14475   6.011   6.008   6.835
   218G11  O00A14476   6.135   6.014   6.780
   218G11  C09P14477   6.175   6.139   6.740
   218G11  H00P14478   6.182   6.154   6.633
   218G11  C09O14479   6.135   6.254   6.813
   218G11  C09D14480   5.995   6.258   6.855
   218G11  C09C14481   5.918   6.369   6.902
   218G11  C09N14482   5.951   6.498   6.955
   218G11  C09T14483   6.081   6.541   6.983
   218G11  C09S14484   6.180   6.496   6.892
   218G11  C0CP14485   6.238   6.622   6.853
   218G11  C0CN14486   6.188   6.733   6.917
   218G11  C0CO14487   6.226   6.859   6.877
   218G11  H01414488   6.182   6.951   6.911
   218G11  C0CZ14489   6.339   6.866   6.789
   218G11  H01514490   6.377   6.964   6.764
   218G11  C0D014491   6.406   6.751   6.737
   218G11  C0G514492   6.523   6.745   6.649
   218G11  H01F14493   6.577   6.837   6.631
   218G11  C0G414494   6.574   6.635   6.596
   218G11  H01G14495   6.663   6.643   6.536
   218G11  O00H14496   6.515   6.514   6.622
   218G11  C0D214497   6.409   6.505   6.713
   218G11  C09V14498   6.331   6.383   6.735
   218G11  H00Q14499   6.367   6.296   6.683
   218G11  C0D114500   6.351   6.623   6.766
   218G11  C09R14501   6.209   6.383   6.812
   218G11  C09H14502   5.852   5.823   6.914
   218G11  C09E14503   5.931   6.125   6.862
   218G11  C09B14504   5.781   6.359   6.931
   218G11  C08Z14505   5.608   6.086   7.041
   218G11  C08O14506   5.543   6.257   7.245
   218G11  C09A14507   5.721   6.478   6.989
   218G11  C08S14508   5.684   6.536   7.337
   218G11  C09914509   5.833   6.565   7.005
   218G11  C09U14510   6.100   6.678   7.017
   218G11  C0BO14511   6.154   7.055   7.304
   218G11  C0CL14512   5.880   6.808   7.315
   218G11  C0D314513   5.724   6.884   7.490
   218G11  C0D514514   5.641   7.083   7.679
   218G11  C0BR14515   5.978   7.145   7.445
   218G11  C0BQ14516   6.099   7.162   7.378
   218G11  C0BL14517   6.349   7.190   7.254
   218G11  C0AF14518   6.470   7.434   7.253
   218G11  C0BH14519   6.183   7.510   7.471
   218G11  C0BG14520   6.143   7.614   7.557
   218G11  C0BD14521   6.318   7.756   7.475
   218G11  C0AG14522   6.525   7.559   7.253
   218G11  C0AI14523   6.723   7.688   7.209
   218G11  C0AV14524   6.889   7.883   7.285
   218G11  C0BB14525   6.556   8.021   7.374
   218G11  O00C14526   6.905   8.088   7.428
   218G11  C0BC14527   6.536   8.123   7.466
   218G11  C0B914528   6.386   7.881   7.474
   218G11  O00E14529   6.241   8.019   7.790
   218G11  C0CA14530   6.145   7.994   7.887
   218G11  O00F14531   6.135   8.066   7.985
   218G11  C0BF14532   6.219   7.728   7.562
   218G11  C0C514533   6.058   7.885   7.851
   218G11  C0C414534   5.936   7.876   7.922
   218G11  H01114535   5.913   7.952   7.996
   218G11  C0C814536   6.023   7.592   7.631
   218G11  C0C214537   5.846   7.765   7.886
   218G11  C0C314538   5.714   7.746   7.939
   218G11  C0DY14539   5.659   7.830   8.035
   218G11  H01614540   5.678   7.930   8.071
   218G11  C0DX14541   5.551   7.748   8.091
   218G11  C0DW14542   5.491   7.797   8.206
   218G11  C0BY14543   5.843   7.448   7.697
   218G11  C0DB14544   5.649   7.624   7.934
   218G11  C0CC14545   5.666   7.307   7.780
   218G11  C0D714546   5.446   7.260   7.945
   218G11  C0DZ14547   5.543   7.612   8.031
   218G11  C0DM14548   5.244   7.282   8.120
   218G11  C0DQ14549   5.336   7.601   8.259
   218G11  C0DV14550   5.387   7.730   8.272
   218G11  C0E014551   5.507   7.930   8.266
   218G11  C0FO14552   5.424   7.993   8.604
   218G11  C0E314553   5.624   7.987   8.337
   218G11  H01714554   5.729   7.974   8.316
   218G11  C0GV14555   5.527   8.062   8.666
   218G11  C0ES14556   5.360   7.893   8.670
   218G11  C0GQ14557   5.478   7.982   9.010
   218G11  C0FJ14558   5.223   7.747   9.115
   218G11  C0ED14559   5.214   7.713   8.831
   218G11  C0ER14560   4.873   7.652   8.909
   218G11  C0EP14561   4.865   7.442   8.799
   218G11  C0E614562   5.165   7.595   8.600
   218G11  C0DE14563   5.086   7.360   8.400
   218G11  C0EA14564   4.842   7.222   8.668
   218G11  C0DF14565   4.999   7.270   8.331
   218G11  C08014566   4.818   6.973   8.431
   218G11  C0DO14567   5.040   7.175   8.236
   218G11  C0DJ14568   5.085   6.957   8.071
   218G11  C07K14569   4.844   6.746   8.285
   218G11  C07W14570   5.059   6.738   7.988
   218G11  C08314571   4.961   6.472   7.993
   218G11  C07J14572   4.803   6.612   8.295
   218G11  C06O14573   4.725   6.341   8.318
   218G11  C06M14574   4.834   6.299   8.106
   228G11  C07114575  10.001   2.413  11.312
   228G11  C07L14576  10.053   2.451  11.185
   228G11  C07M14577  10.089   2.582  11.157
   228G11  C07Y14578  10.139   2.617  11.032
   228G11  C08114579  10.155   2.525  10.928
   228G11  C08214580  10.200   2.569  10.800
   228G11  C0DI14581  10.234   2.494  10.678
   228G11  C0DH14582  10.226   2.357  10.643
   228G11  C0DG14583  10.270   2.335  10.501
   228G11  C0E914584  10.228   2.242  10.397
   228G11  C0E814585  10.237   2.328  10.269
   228G11  C0E714586  10.242   2.298  10.126
   228G11  C0EB14587  10.257   2.157  10.091
   228G11  C0EF14588  10.311   2.107   9.960
   228G11  C0EE14589  10.378   2.181   9.856
   228G11  C0FD14590  10.492   2.116   9.798
   228G11  C0FE14591  10.572   2.014   9.865
   228G11  H01B14592  10.537   1.965   9.955
   228G11  C0FF14593  10.677   1.952   9.800
   228G11  H01A14594  10.733   1.872   9.846
   228G11  C0FG14595  10.710   1.998   9.671
   228G11  H01814596  10.792   1.948   9.622
   228G11  C0FH14597  10.639   2.092   9.596
   228G11  C0FI14598  10.664   2.132   9.462
   228G11  H01914599  10.744   2.089   9.404
   228G11  O00K14600  10.589   2.223   9.393
   228G11  C0FL14601  10.498   2.286   9.469
   228G11  C0FK14602  10.460   2.253   9.603
   228G11  C0FM14603  10.360   2.325   9.666
   228G11  C0FN14604  10.299   2.432   9.596
   228G11  C0FP14605  10.351   2.470   9.475
   228G11  C0GO14606  10.314   2.587   9.414
   228G11  C0GN14607  10.386   2.650   9.312
   228G11  C0GR14608  10.481   2.573   9.246
   228G11  C0GS14609  10.560   2.617   9.135
   228G11  H01Q14610  10.639   2.556   9.094
   228G11  C0GT14611  10.550   2.748   9.101
   228G11  H01O14612  10.616   2.785   9.024
   228G11  C0GU14613  10.450   2.828   9.161
   228G11  H01P14614  10.445   2.931   9.130
   228G11  O00L14615  10.509   2.447   9.287
   228G11  C0GM14616  10.364   2.781   9.262
   228G11  C0GL14617  10.270   2.856   9.339
   228G11  H01R14618  10.257   2.961   9.319
   228G11  C0GK14619  10.188   2.794   9.437
   228G11  C0GP14620  10.102   2.841   9.544
   228G11  C0E214621  10.048   2.724   9.621
   228G11  C0E114622  10.039   2.773   9.758
   228G11  C0DU14623  10.094   2.710   9.871
   228G11  C0DT14624  10.126   2.572   9.892
   228G11  C0E414625  10.180   2.490   9.798
   228G11  C0E514626  10.232   2.383   9.866
   228G11  C0DS14627  10.174   2.530  10.018
   228G11  C0DR14628  10.198   2.624  10.117
   228G11  C0DD14629  10.237   2.595  10.245
   228G11  C0DC14630  10.263   2.735  10.296
   228G11  C0DP14631  10.236   2.840  10.194
   228G11  C0DA14632  10.252   2.981  10.200
   228G11  C0D914633  10.256   3.075  10.311
   228G11  C0CR14634  10.261   3.217  10.288
   228G11  C0C014635  10.299   3.263  10.170
   228G11  C0BZ14636  10.326   3.393  10.137
   228G11  C0C114637  10.403   3.433  10.024
   228G11  C0C714638  10.446   3.564  10.012
   228G11  C0C614639  10.531   3.596   9.909
   228G11  C0C914640  10.571   3.730   9.898
   228G11  C0B814641  10.687   3.760   9.821
   228G11  C0B714642  10.745   3.889   9.822
   228G11  C0B614643  10.877   3.932   9.778
   228G11  C0B514644  10.993   3.854   9.823
   228G11  H00Z14645  10.979   3.759   9.872
   228G11  C0B414646  11.096   3.954   9.842
   228G11  H01014647  11.190   3.952   9.897
   228G11  C0B314648  11.053   4.085   9.805
   228G11  C0AP14649  11.053   4.220   9.862
   228G11  C0AQ14650  10.913   4.257   9.862
   228G11  C0AR14651  10.870   4.359   9.953
   228G11  C0AS14652  10.737   4.340   9.983
   228G11  C0AT14653  10.665   4.225   9.959
   228G11  C0BA14654  10.719   4.125   9.882
   228G11  C0AU14655  10.560   4.188  10.042
   228G11  C0BE14656  10.506   4.059  10.043
   228G11  C0BI14657  10.418   4.024  10.143
   228G11  C0BJ14658  10.370   4.118  10.232
   228G11  C0BK14659  10.290   4.081  10.341
   228G11  C0BW14660  10.255   3.945  10.365
   228G11  C0BV14661  10.307   3.851  10.281
   228G11  C0BU14662  10.286   3.719  10.310
   228G11  C0BX14663  10.323   3.620  10.219
   228G11  C0BT14664  10.227   3.677  10.427
   228G11  C0CD14665  10.230   3.543  10.460
   228G11  C0CB14666  10.260   3.447  10.362
   228G11  C0CE14667  10.186   3.508  10.584
   228G11  C0CK14668  10.155   3.604  10.677
   228G11  C0BS14669  10.147   3.739  10.646
   228G11  C0CJ14670  10.102   3.833  10.739
   228G11  C0BP14671  10.101   3.965  10.702
   228G11  C0CI14672  10.041   4.060  10.786
   228G11  C0CH14673  10.045   4.195  10.741
   228G11  H01214674   9.991   4.274  10.789
   228G11  C0BN14675  10.121   4.234  10.629
   228G11  C0CG14676  10.150   4.369  10.608
   228G11  C0CF14677  10.098   4.481  10.691
   228G11  H01314678  10.033   4.454  10.773
   228G11  O00G14679  10.145   4.603  10.676
   228G11  C0AA14680  10.241   4.632  10.585
   228G11  C0A914681  10.291   4.757  10.580
   228G11  H00U14682  10.241   4.827  10.646
   228G11  C0A814683  10.409   4.789  10.516
   228G11  H00V14684  10.447   4.890  10.520
   228G11  C0A714685  10.489   4.690  10.455
   228G11  C0A614686  10.421   4.557  10.435
   228G11  C0A514687  10.453   4.461  10.337
   228G11  C0A414688  10.558   4.495  10.241
   228G11  C0A314689  10.671   4.588  10.231
   228G11  C0A214690  10.715   4.657  10.341
   228G11  C0A114691  10.840   4.734  10.334
   228G11  C0A014692  10.975   4.725  10.268
   228G11  C09Z14693  11.074   4.807  10.320
   228G11  C09Y14694  11.211   4.788  10.294
   228G11  H00Y14695  11.291   4.843  10.342
   228G11  C09X14696  11.239   4.688  10.198
   228G11  C09W14697  11.377   4.664  10.179
   228G11  H00R14698  11.460   4.721  10.218
   228G11  C0AX14699  11.421   4.556  10.107
   228G11  H00S14700  11.526   4.534  10.094
   228G11  C0AW14701  11.327   4.470  10.054
   228G11  H00T14702  11.364   4.381  10.006
   228G11  C0AN14703  11.185   4.492  10.065
   228G11  C0AO14704  11.086   4.416   9.997
   228G11  C0AM14705  11.139   4.600  10.145
   228G11  C0B214706  11.054   4.916  10.413
   228G11  O00D14707  11.146   4.992  10.455
   228G11  C0B114708  10.924   4.931  10.466
   228G11  H00W14709  10.907   5.017  10.530
   228G11  C0AL14710  11.005   4.622  10.176
   228G11  C0AK14711  10.909   4.534  10.114
   228G11  C0B014712  10.822   4.838  10.429
   228G11  C0AZ14713  10.687   4.838  10.479
   228G11  H00X14714  10.645   4.904  10.553
   228G11  C0AJ14715  10.767   4.532  10.140
   228G11  C0AH14716  10.567   4.407  10.132
   228G11  C0AE14717  10.389   4.340  10.326
   228G11  C0AD14718  10.295   4.306  10.421
   228G11  C0AY14719  10.620   4.722  10.427
   228G11  C0AB14720  10.308   4.527  10.511
   228G11  C0AC14721  10.251   4.402  10.513
   228G11  C0BM14722  10.174   4.137  10.548
   228G11  C0CM14723   9.990   4.012  10.911
   228G11  C09M14724  10.043   3.892  10.968
   228G11  C09814725  10.065   3.891  11.113
   228G11  C08R14726  10.089   3.784  11.209
   228G11  C08Q14727  10.088   3.825  11.340
   228G11  C08P14728  10.056   3.768  11.470
   228G11  C08Y14729  10.023   3.857  11.572
   228G11  C09714730   9.983   3.985  11.541
   228G11  C09614731   9.878   4.033  11.618
   228G11  C09014732   9.883   3.949  11.731
   228G11  C09514733   9.796   3.958  11.841
   228G11  C09414734   9.808   3.875  11.952
   228G11  C08J14735   9.866   3.745  11.963
   228G11  C08I14736   9.783   3.671  12.045
   228G11  C08H14737   9.792   3.530  12.016
   228G11  C08G14738   9.875   3.522  11.891
   228G11  C08F14739   9.932   3.413  11.809
   228G11  C08E14740   9.920   3.275  11.845
   228G11  C05914741   9.870   3.223  11.972
   228G11  C05814742   9.868   3.082  11.998
   228G11  C05714743   9.813   3.020  12.112
   228G11  C05614744   9.765   3.106  12.215
   228G11  C05514745   9.797   3.236  12.216
   228G11  C05414746   9.706   3.294  12.303
   228G11  C05314747   9.606   3.205  12.346
   228G11  C05214748   9.480   3.224  12.417
   228G11  C05114749   9.429   3.358  12.441
   228G11  C05U14750   9.485   3.485  12.393
   228G11  C05T14751   9.588   3.517  12.301
   228G11  C06K14752   9.622   3.654  12.334
   228G11  H00J14753   9.713   3.697  12.295
   228G11  C06L14754   9.526   3.709  12.423
   228G11  H00I14755   9.523   3.811  12.457
   228G11  C05V14756   9.447   3.598  12.465
   228G11  C06J14757   9.335   3.609  12.543
   228G11  H00K14758   9.314   3.704  12.590
   228G11  C05X14759   9.255   3.494  12.557
   228G11  C06I14760   9.127   3.496  12.616
   228G11  H00L14761   9.084   3.591  12.645
   228G11  C04Z14762   9.042   3.387  12.615
   228G11  C06H14763   8.901   3.404  12.649
   228G11  H00H14764   8.857   3.502  12.659
   228G11  C04Y14765   8.819   3.284  12.645
   228G11  C06G14766   8.680   3.305  12.676
   228G11  O00914767   8.629   3.408  12.724
   228G11  O00814768   8.601   3.193  12.661
   228G11  C04P14769   8.650   3.065  12.644
   228G11  C04J14770   8.567   2.949  12.642
   228G11  C04Q14771   8.431   2.939  12.664
   228G11  H00E14772   8.378   3.030  12.686
   228G11  C04M14773   8.365   2.814  12.650
   228G11  C04R14774   8.228   2.795  12.652
   228G11  H00F14775   8.167   2.883  12.664
   228G11  C04S14776   8.163   2.682  12.648
   228G11  H00G14777   8.056   2.674  12.659
   228G11  O00714778   8.235   2.559  12.638
   228G11  C03V14779   8.372   2.570  12.620
   228G11  C03U14780   8.446   2.456  12.597
   228G11  O00614781   8.372   2.336  12.587
   228G11  C03F14782   8.441   2.222  12.566
   228G11  C03E14783   8.577   2.223  12.521
   228G11  C03D14784   8.650   2.346  12.518
   228G11  C03C14785   8.783   2.348  12.479
   228G11  C03B14786   8.829   2.227  12.433
   228G11  C03A14787   8.960   2.229  12.385
   228G11  C03914788   9.052   2.338  12.391
   228G11  C03814789   9.173   2.287  12.326
   228G11  C03714790   9.153   2.149  12.304
   228G11  C03614791   9.240   2.073  12.238
   228G11  C02R14792   9.226   1.947  12.185
   228G11  C03514793   9.346   1.933  12.112
   228G11  C03R14794   9.425   2.046  12.115
   228G11  C03S14795   9.507   2.081  12.007
   228G11  C04914796   9.553   2.214  12.007
   228G11  C04814797   9.497   2.299  12.107
   228G11  C03P14798   9.382   2.277  12.193
   228G11  C04714799   9.564   2.422  12.107
   228G11  C04614800   9.546   2.522  12.200
   228G11  C04514801   9.435   2.547  12.286
   228G11  C03T14802   9.317   2.478  12.319
   228G11  C04414803   9.241   2.553  12.408
   228G11  C04314804   9.323   2.658  12.453
   228G11  C04214805   9.245   2.768  12.494
   228G11  C04114806   9.108   2.704  12.497
   228G11  C04014807   8.989   2.768  12.541
   228G11  C03Z14808   8.860   2.712  12.558
   228G11  C04H14809   8.776   2.819  12.597
   228G11  C04G14810   8.849   2.935  12.600
   228G11  C03N14811   8.792   2.585  12.533
   228G11  C03Y14812   8.654   2.581  12.570
   228G11  C03X14813   8.581   2.697  12.615
   228G11  C04F14814   8.977   2.911  12.567
   228G11  C04E14815   9.068   3.019  12.570
   228G11  C04O14816   9.010   3.149  12.588
   228G11  C04D14817   9.205   3.012  12.542
   228G11  C04V14818   9.277   3.129  12.525
   228G11  C04W14819   9.228   3.261  12.542
   228G11  C04C14820   9.294   2.903  12.509
   228G11  C04L14821   9.419   2.966  12.459
   228G11  C04U14822   9.523   2.899  12.385
   228G11  C05Q14823   9.626   2.952  12.312
   228G11  C05P14824   9.692   2.861  12.226
   228G11  C04T14825   9.625   2.744  12.243
   228G11  C04B14826   9.522   2.766  12.338
   228G11  C03M14827   9.106   2.568  12.452
   228G11  C04A14828   9.432   2.663  12.362
   228G11  C05H14829   9.638   2.621  12.173
   228G11  C05G14830   9.712   2.584  12.055
   228G11  C05F14831   9.806   2.661  11.992
   228G11  C05E14832   9.853   2.642  11.858
   228G11  C05L14833   9.839   2.541  11.755
   228G11  C05K14834   9.779   2.413  11.778
   228G11  C05J14835   9.696   2.373  11.892
   228G11  C06614836   9.796   2.318  11.675
   228G11  C06514837   9.869   2.349  11.557
   228G11  C06414838   9.909   2.478  11.532
   228G11  C06N14839   9.890   2.253  11.456
   228G11  C06914840   9.823   2.128  11.467
   228G11  C06P14841   9.833   2.032  11.366
   228G11  C06R14842   9.766   1.910  11.376
   228G11  C06B14843   9.696   1.877  11.486
   228G11  C06S14844   9.633   1.753  11.495
   228G11  C02G14845   9.566   1.714  11.607
   228G11  C02F14846   9.494   1.594  11.611
   228G11  C02714847   9.494   1.506  11.503
   228G11  C02614848   9.417   1.398  11.504
   228G11  C00E14849   9.415   1.308  11.397
   228G11  C00D14850   9.327   1.201  11.393
   228G11  C00C14851   9.326   1.126  11.279
   228G11  C00B14852   9.406   1.144  11.171
   228G11  C01514853   9.494   1.249  11.170
   228G11  C07F14854   9.571   1.285  11.063
   228G11  C07E14855   9.645   1.402  11.062
   228G11  C06W14856   9.639   1.491  11.170
   228G11  C06V14857   9.569   1.450  11.282
   228G11  C06X14858   9.719   1.603  11.164
   228G11  C07B14859   9.791   1.636  11.055
   228G11  C07C14860   9.793   1.549  10.944
   228G11  C0FU14861   9.853   1.586  10.824
   228G11  C0F714862   9.847   1.506  10.716
   228G11  C0F614863   9.913   1.543  10.598
   228G11  C0F814864   9.929   1.445  10.497
   228G11  C0F914865   9.997   1.481  10.379
   228G11  C0FA14866  10.015   1.388  10.280
   228G11  C0FZ14867   9.964   1.265  10.299
   228G11  C0G014868   9.993   1.159  10.205
   228G11  C0GD14869  10.068   1.185  10.091
   228G11  C0FC14870  10.115   1.313  10.070
   228G11  C0GH14871  10.183   1.343   9.949
   228G11  C0EY14872  10.224   1.474   9.932
   228G11  C0EX14873  10.281   1.515   9.806
   228G11  C0EW14874  10.321   1.646   9.788
   228G11  C0FR14875  10.382   1.688   9.669
   228G11  H01D14876  10.416   1.789   9.654
   228G11  C0FS14877  10.395   1.596   9.565
   228G11  H01C14878  10.434   1.625   9.468
   228G11  C0GJ14879  10.349   1.462   9.582
   228G11  H01N14880  10.357   1.390   9.502
   228G11  C0EV14881  10.294   1.740   9.884
   228G11  C0FT14882  10.312   1.880   9.851
   228G11  H01E14883  10.319   1.923   9.753
   228G11  C0EU14884  10.252   1.700  10.011
   228G11  C0ET14885  10.222   1.795  10.108
   228G11  C0EI14886  10.165   1.766  10.231
   228G11  C0F114887  10.122   1.639  10.251
   228G11  C0F014888  10.138   1.542  10.149
   228G11  C0EH14889  10.147   1.875  10.330
   228G11  C0EG14890  10.191   2.013  10.304
   228G11  C0EJ14891  10.093   1.836  10.456
   228G11  C0F314892  10.037   1.711  10.473
   228G11  C0EK14893  10.089   1.930  10.562
   228G11  C0EL14894  10.151   2.061  10.553
   228G11  C0EM14895  10.146   2.130  10.679
   228G11  C0EN14896  10.091   2.073  10.789
   228G11  C07I14897  10.079   2.163  10.894
   228G11  C07414898  10.014   2.133  11.013
   228G11  C07314899  10.013   2.228  11.113
   228G11  C07214900   9.961   2.190  11.232
   228G11  C07514901   9.965   2.005  11.028
   228G11  C07614902   9.972   1.914  10.922
   228G11  C07814903   9.920   1.791  10.927
   228G11  C07G14904   9.909   1.971  11.148
   228G11  C07014905   9.851   1.846  11.156
   228G11  C07Z14906  10.133   2.285  10.864
   228G11  C07714907  10.022   1.955  10.797
   228G11  C0EO14908  10.022   1.883  10.678
   228G11  C0F414909   9.968   1.753  10.694
   228G11  C0EQ14910  10.247   1.927  10.079
   228G11  C0FQ14911  10.301   1.419   9.703
   228G11  C0GI14912  10.268   1.286   9.738
   228G11  H01L14913  10.270   1.210   9.662
   228G11  C0EZ14914  10.208   1.572  10.031
   228G11  C0GG14915  10.205   1.251   9.855
   228G11  C0GF14916  10.161   1.123   9.883
   228G11  H01M14917  10.164   1.045   9.808
   228G11  C0GE14918  10.090   1.092   9.996
   228G11  H01K14919  10.038   0.998   9.996
   228G11  O00J14920   9.940   1.031  10.217
   228G11  C0GA14921   9.853   1.011  10.315
   228G11  C0G914922   9.796   0.889  10.329
   228G11  H01H14923   9.825   0.807  10.264
   228G11  C0G814924   9.706   0.854  10.433
   228G11  C0G714925   9.631   0.730  10.450
   228G11  H01I14926   9.660   0.649  10.385
   228G11  O00I14927   9.547   0.699  10.553
   228G11  C0G614928   9.529   0.800  10.650
   228G11  H01J14929   9.475   0.761  10.734
   228G11  C02D14930   9.583   0.928  10.629
   228G11  C02C14931   9.561   1.025  10.727
   228G11  C01714932   9.464   1.017  10.829
   228G11  C01614933   9.470   1.099  10.945
   228G11  O00114934   9.361   0.930  10.820
   228G11  C01814935   9.255   0.915  10.914
   228G11  C00914936   9.279   0.979  11.041
   228G11  C00814937   9.183   0.974  11.152
   228G11  C00714938   9.053   0.930  11.172
   228G11  C00614939   8.973   0.870  11.071
   228G11  C00514940   8.830   0.847  11.080
   228G11  C00414941   8.739   0.866  11.186
   228G11  C00314942   8.755   0.942  11.311
   228G11  C00214943   8.630   0.969  11.389
   228G11  C00P14944   8.639   1.047  11.508
   228G11  C00O14945   8.523   1.087  11.581
   228G11  C00N14946   8.522   1.169  11.695
   228G11  C01014947   8.408   1.213  11.750
   228G11  C01114948   8.410   1.298  11.862
   228G11  C01Q14949   8.291   1.329  11.922
   228G11  C01U14950   8.167   1.286  11.870
   228G11  C01214951   8.162   1.208  11.755
   228G11  H00014952   8.067   1.183  11.708
   228G11  C01V14953   8.049   1.320  11.943
   228G11  H00714954   7.951   1.300  11.902
   228G11  O00514955   8.054   1.376  12.068
   228G11  C01W14956   8.175   1.436  12.105
   228G11  C03114957   8.172   1.532  12.207
   228G11  C03214958   8.284   1.611  12.233
   228G11  H00A14959   8.290   1.691  12.304
   228G11  C03314960   8.404   1.575  12.170
   228G11  H00B14961   8.490   1.640  12.178
   228G11  C01O14962   8.411   1.462  12.083
   228G11  C01N14963   8.536   1.421  12.036
   228G11  C01M14964   8.665   1.447  12.097
   228G11  C01L14965   8.737   1.543  12.186
   228G11  C01K14966   8.877   1.536  12.163
   228G11  C01Y14967   8.962   1.642  12.178
   228G11  C02I14968   8.918   1.753  12.252
   228G11  C02N14969   9.003   1.864  12.260
   228G11  C02M14970   8.951   1.980  12.327
   228G11  C02L14971   8.825   1.983  12.386
   228G11  C02K14972   8.746   1.864  12.382
   228G11  C02U14973   8.622   1.861  12.443
   228G11  C02V14974   8.564   1.982  12.482
   228G11  C03H14975   8.428   1.988  12.519
   228G11  H00C14976   8.364   1.903  12.538
   228G11  C02W14977   8.561   1.741  12.466
   228G11  C02X14978   8.600   1.637  12.387
   228G11  C02Y14979   8.527   1.528  12.441
   228G11  H00814980   8.497   1.430  12.409
   228G11  C02Z14981   8.434   1.584  12.548
   228G11  O00414982   8.350   1.531  12.621
   228G11  O00314983   8.464   1.708  12.558
   228G11  C02J14984   8.788   1.752  12.309
   228G11  C01Z14985   9.081   1.634  12.101
   228G11  C02014986   9.099   1.533  12.006
   228G11  C01I14987   9.012   1.435  11.986
   228G11  C01H14988   9.003   1.359  11.872
   228G11  C00K14989   8.884   1.296  11.836
   228G11  C01S14990   8.767   1.323  11.901
   228G11  C01414991   8.648   1.286  11.862
   228G11  C00J14992   8.877   1.224  11.720
   228G11  C00I14993   8.992   1.215  11.642
   228G11  C00H14994   9.109   1.287  11.682
   228G11  C00G14995   9.223   1.285  11.596
   228G11  C00S14996   8.994   1.136  11.529
   228G11  C00T14997   9.110   1.126  11.463
   228G11  C00U14998   9.113   1.037  11.357
   228G11  C00R14999   8.880   1.079  11.482
   228G11  C00L15000   8.756   1.178  11.670
   228G11  C02815001   9.110   1.363  11.791
   228G11  C02315002   9.212   1.458  11.805
   228G11  C02415003   9.313   1.468  11.711
   228G11  C02115004   9.207   1.543  11.910
   228G11  C02215005   9.296   1.644  11.915
   228G11  C02H15006   9.391   1.666  11.813
   228G11  C03015007   9.474   1.777  11.815
   228G11  C03415008   9.460   1.870  11.911
   228G11  C02P15009   9.276   1.743  12.012
   228G11  C02B15010   9.168   1.743  12.104
   228G11  C01J15011   8.894   1.441  12.068
   228G11  C01X15012   8.702   1.637  12.289
   228G11  C01T15013   8.776   1.390  12.025
   228G11  H00915014   8.078   1.549  12.258
   228G11  C01P15015   8.294   1.403  12.038
   228G11  C01R15016   8.532   1.334  11.924
   228G11  C00Z15017   8.284   1.167  11.695
   228G11  O00015018   8.283   1.092  11.583
   228G11  C00M15019   8.643   1.207  11.745
   228G11  C00Y15020   8.398   1.054  11.526
   228G11  C01315021   8.389   0.974  11.411
   228G11  H00115022   8.290   0.961  11.371
   228G11  C00Q15023   8.763   1.097  11.553
   228G11  C00115024   8.505   0.926  11.343
   228G11  C00015025   8.499   0.848  11.225
   228G11  H00615026   8.400   0.830  11.187
   228G11  C00W15027   8.875   0.998  11.366
   228G11  C01G15028   8.613   0.810  11.157
   228G11  H00515029   8.602   0.736  11.079
   228G11  C01C15030   8.798   0.780  10.954
   228G11  H00215031   8.705   0.741  10.915
   228G11  C01B15032   8.914   0.770  10.869
   228G11  C01D15033   8.922   0.723  10.733
   228G11  H00315034   8.840   0.682  10.675
   228G11  C01E15035   9.044   0.745  10.674
   228G11  H00415036   9.057   0.715  10.571
   228G11  O00215037   9.155   0.800  10.740
   228G11  C01A15038   9.021   0.824  10.944
   228G11  C00V15039   9.001   0.979  11.296
   228G11  C01915040   9.144   0.843  10.872
   228G11  C02E15041   9.634   1.145  10.727
   228G11  C0FX15042   9.716   1.177  10.619
   228G11  C0FW15043   9.783   1.296  10.614
   228G11  C0GB15044   9.741   1.083  10.518
   228G11  C0G315045   9.636   1.231  10.840
   228G11  C07H15046   9.718   1.346  10.839
   228G11  C0GC15047   9.675   0.960  10.522
   228G11  C0G215048   9.821   1.110  10.413
   228G11  C0G115049   9.883   1.232  10.405
   228G11  C0FB15050  10.088   1.415  10.166
   228G11  C0F215051  10.049   1.612  10.367
   228G11  C0FY15052   9.865   1.323  10.505
   228G11  C0F515053   9.968   1.671  10.585
   228G11  C0FV15054   9.780   1.385  10.720
   228G11  C07915055   9.919   1.710  10.818
   228G11  C07A15056   9.856   1.759  11.044
   228G11  C06Y15057   9.717   1.691  11.277
   228G11  C07D15058   9.720   1.432  10.950
   228G11  C01F15059   9.563   1.206  10.950
   228G11  C00A15060   9.383   1.074  11.056
   228G11  C00X15061   9.225   1.029  11.275
   228G11  C00F15062   9.226   1.192  11.490
   228G11  C02915063   9.496   1.333  11.285
   228G11  C02515064   9.316   1.383  11.605
   228G11  C06U15065   9.569   1.538  11.392
   228G11  C02A15066   9.407   1.570  11.716
   228G11  C05Y15067   9.552   1.806  11.712
   228G11  C05Z15068   9.617   1.935  11.701
   228G11  C06015069   9.604   2.027  11.805
   228G11  C06215070   9.658   2.154  11.798
   228G11  C06T15071   9.639   1.663  11.386
   228G11  C06A15072   9.687   1.971  11.587
   228G11  C06Z15073   9.782   1.814  11.276
   228G11  C06Q15074   9.904   2.064  11.249
   228G11  C06815075   9.744   2.100  11.578
   228G11  C06715076   9.729   2.193  11.681
   228G11  C06315077   9.900   2.576  11.631
   228G11  C06C15078   9.943   2.704  11.603
   228G11  C06D15079   9.943   2.803  11.698
   228G11  C06E15080   9.975   2.937  11.676
   228G11  C07Q15081  10.020   2.977  11.553
   228G11  C07P15082  10.030   2.879  11.460
   228G11  C07T15083  10.074   2.911  11.337
   228G11  C07U15084  10.091   2.811  11.234
   228G11  C07V15085  10.132   2.848  11.107
   228G11  C08415086  10.153   2.981  11.077
   228G11  C08C15087  10.128   3.079  11.174
   228G11  C08B15088  10.133   3.214  11.140
   228G11  C08A15089  10.107   3.309  11.237
   228G11  C08915090  10.077   3.282  11.366
   228G11  C08815091  10.049   3.384  11.458
   228G11  C08715092  10.012   3.352  11.592
   228G11  C08615093  10.003   3.213  11.627
   228G11  C08X15094  10.055   3.519  11.418
   228G11  C08T15095  10.065   3.543  11.274
   228G11  C08D15096  10.075   3.146  11.401
   228G11  C08U15097  10.097   3.437  11.196
   228G11  C08V15098  10.111   3.474  11.063
   228G11  C0CY15099  10.144   3.378  10.966
   228G11  C0CX15100  10.150   3.425  10.837
   228G11  C0CW15101  10.176   3.331  10.743
   228G11  C0CV15102  10.199   3.202  10.782
   228G11  C0D415103  10.187   3.158  10.913
   228G11  C0CU15104  10.226   3.108  10.688
   228G11  C0CT15105  10.237   3.140  10.551
   228G11  C0CS15106  10.234   3.275  10.520
   228G11  C0D615107  10.232   2.979  10.728
   228G11  C0EC15108  10.209   2.932  10.856
   228G11  C07X15109  10.195   2.798  10.883
   228G11  C0DL15110  10.262   2.888  10.626
   228G11  C0DK15111  10.260   2.750  10.655
   228G11  C0DN15112  10.278   2.686  10.542
   228G11  C0D815113  10.283   2.905  10.488
   228G11  C08W15114  10.087   3.608  11.043
   228G11  C0CQ15115  10.106   3.656  10.909
   228G11  C09315116  10.150   3.249  11.005
   228G11  C09215117  10.187   3.025  10.954
   228G11  C08515118  10.095   3.045  11.305
   228G11  C07S15119  10.039   3.114  11.527
   228G11  C06F15120   9.947   3.036  11.772
   228G11  C07O15121   9.998   2.743  11.483
   228G11  C07N15122  10.019   2.642  11.385
   228G11  C05D15123   9.919   2.761  11.832
   228G11  C05C15124   9.911   2.856  11.931
   228G11  C05N15125   9.840   2.795  12.029
   228G11  C05M15126   9.664   2.460  12.006
   228G11  C05I15127   9.634   2.247  11.899
   228G11  C06115128   9.528   1.994  11.910
   228G11  C02Q15129   9.367   1.846  12.012
   228G11  C02O15130   9.125   1.849  12.185
   228G11  C03Q15131   9.351   2.136  12.184
   228G11  C03O15132   9.294   2.349  12.279
   228G11  C03L15133   9.003   2.463  12.444
   228G11  C02S15134   9.025   2.106  12.335
   228G11  C02T15135   8.762   2.105  12.427
   228G11  C03K15136   8.859   2.467  12.487
   228G11  C03I15137   8.630   2.100  12.479
   228G11  C03G15138   8.366   2.107  12.560
   228G11  H00D15139   8.263   2.095  12.591
   228G11  C03J15140   8.585   2.461  12.560
   228G11  C03W15141   8.440   2.695  12.627
   228G11  C04I15142   8.635   2.827  12.627
   228G11  C04K15143   8.784   3.055  12.615
   228G11  C04N15144   8.873   3.161  12.609
   228G11  C04X15145   9.093   3.264  12.583
   228G11  C05015146   9.307   3.371  12.513
   228G11  C05W15147   9.402   3.113  12.465
   228G11  C05S15148   9.676   3.420  12.236
   228G11  C05R15149   9.661   3.079  12.296
   228G11  C05O15150   9.787   2.885  12.127
   228G11  C05B15151   9.915   2.998  11.901
   228G11  C05A15152   9.823   3.298  12.093
   228G11  C07R15153   9.954   3.175  11.751
   228G11  C08N15154   9.978   3.452  11.683
   228G11  C08M15155   9.990   3.592  11.640
   228G11  C08L15156   9.952   3.693  11.736
   228G11  C09115157   9.762   3.423  12.110
   228G11  C09K15158   9.650   3.739  12.057
   228G11  H00M15159   9.552   3.702  12.081
   228G11  C08K15160   9.908   3.657  11.859
   228G11  C09J15161   9.683   3.873  12.017
   228G11  C09I15162   9.598   3.974  11.951
   228G11  C09L15163   9.465   4.015  11.986
   228G11  H00N15164   9.407   3.973  12.067
   228G11  C09Q15165   9.422   4.117  11.909
   228G11  H00O15166   9.319   4.140  11.934
   228G11  O00B15167   9.487   4.172  11.799
   228G11  C09G15168   9.613   4.123  11.759
   228G11  C09F15169   9.655   4.166  11.633
   228G11  O00A15170   9.553   4.243  11.576
   228G11  C09P15171   9.584   4.293  11.452
   228G11  H00P15172   9.585   4.401  11.450
   228G11  C09O15173   9.666   4.215  11.363
   228G11  C09D15174   9.784   4.147  11.421
   228G11  C09C15175   9.905   4.097  11.352
   228G11  C09N15176   9.939   4.085  11.216
   228G11  C09T15177   9.851   4.112  11.109
   228G11  C09S15178   9.712   4.164  11.118
   228G11  C0CP15179   9.666   4.154  10.988
   228G11  C0CN15180   9.758   4.104  10.895
   228G11  C0CO15181   9.713   4.087  10.763
   228G11  H01415182   9.777   4.049  10.685
   228G11  C0CZ15183   9.584   4.131  10.731
   228G11  H01515184   9.550   4.117  10.629
   228G11  C0D015185   9.490   4.177  10.835
   228G11  C0G515186   9.352   4.199  10.803
   228G11  H01F15187   9.312   4.183  10.704
   228G11  C0G415188   9.263   4.223  10.907
   228G11  H01G15189   9.161   4.236  10.875
   228G11  O00H15190   9.311   4.250  11.039
   228G11  C0D215191   9.439   4.221  11.064
   228G11  C09V15192   9.488   4.227  11.195
   228G11  H00Q15193   9.422   4.254  11.276
   228G11  C0D115194   9.528   4.183  10.967
   228G11  C09R15195   9.628   4.208  11.226
   228G11  C09H15196   9.671   4.029  11.845
   228G11  C09E15197   9.772   4.125  11.566
   228G11  C09B15198  10.008   4.031  11.416
   228G11  C08Z15199   9.953   3.825  11.693
   228G11  C08O15200  10.032   3.626  11.510
   228G11  C09A15201  10.100   3.970  11.328
   228G11  C08S15202  10.063   3.653  11.179
   228G11  C09915203  10.065   4.011  11.196
   228G11  C09U15204   9.880   4.082  10.971
   228G11  C0BO15205  10.155   4.004  10.578
   228G11  C0CL15206  10.079   3.792  10.873
   228G11  C0D315207  10.134   3.562  10.809
   228G11  C0D515208  10.203   3.373  10.618
   228G11  C0BR15209  10.188   3.776  10.516
   228G11  C0BQ15210  10.203   3.910  10.486
   228G11  C0BL15211  10.246   4.176  10.432
   228G11  C0AF15212  10.419   4.251  10.224
   228G11  C0BH15213  10.382   3.891  10.168
   228G11  C0BG15214  10.437   3.795  10.087
   228G11  C0BD15215  10.561   3.960   9.967
   228G11  C0AG15216  10.516   4.277  10.133
   228G11  C0AI15217  10.691   4.427  10.081
   228G11  C0AV15218  10.953   4.439  10.024
   228G11  C0BB15219  10.839   4.151   9.813
   228G11  O00C15220  11.138   4.302   9.931
   228G11  C0BC15221  10.923   4.062   9.749
   228G11  C0B915222  10.674   3.990   9.883
   228G11  O00E15223  10.731   3.662   9.736
   228G11  C0CA15224  10.664   3.536   9.710
   228G11  O00F15225  10.687   3.468   9.608
   228G11  C0BF15226  10.522   3.828   9.982
   228G11  C0C515227  10.570   3.505   9.814
   228G11  C0C415228  10.513   3.373   9.808
   228G11  H01115229  10.536   3.302   9.730
   228G11  C0C815230  10.408   3.657  10.110
   228G11  C0C215231  10.428   3.339   9.920
   228G11  C0C315232  10.357   3.215   9.937
   228G11  C0DY15233  10.328   3.112   9.848
   228G11  H01615234  10.332   3.101   9.741
   228G11  C0DX15235  10.274   3.008   9.932
   228G11  C0DW15236  10.161   2.925   9.886
   228G11  C0BY15237  10.305   3.488  10.239
   228G11  C0DB15238  10.318   3.173  10.063
   228G11  C0CC15239  10.248   3.310  10.389
   228G11  C0D715240  10.251   3.041  10.446
   228G11  C0DZ15241  10.286   3.042  10.073
   228G11  C0DM15242  10.300   2.772  10.429
   228G11  C0DQ15243  10.191   2.762  10.083
   228G11  C0DV15244  10.145   2.803   9.957
   228G11  C0E015245  10.087   2.909   9.760
   228G11  C0FO15246  10.135   2.618   9.582
   228G11  C0E315247  10.119   2.957   9.625
   228G11  H01715248  10.185   3.041   9.612
   228G11  C0GV15249  10.203   2.660   9.464
   228G11  C0ES15250  10.192   2.507   9.656
   228G11  C0GQ15251  10.453   2.404   9.409
   228G11  C0FJ15252  10.532   2.157   9.669
   228G11  C0ED15253  10.324   2.295   9.803
   228G11  C0ER15254  10.289   1.962   9.952
   228G11  C0EP15255  10.231   2.035  10.167
   228G11  C0E615256  10.211   2.391  10.011
   228G11  C0DE15257  10.271   2.466  10.307
   228G11  C0EA15258  10.187   2.103  10.417
   228G11  C0DF15259  10.298   2.455  10.448
   228G11  C08015260  10.172   2.260  10.728
   228G11  C0DO15261  10.270   2.552  10.552
   228G11  C0DJ15262  10.212   2.704  10.784
   228G11  C07K15263  10.121   2.393  10.959
   228G11  C07W15264  10.154   2.753  11.007
   228G11  C08315265  10.066   2.677  11.259
   228G11  C07J15266  10.068   2.353  11.086
   228G11  C06O15267   9.950   2.286  11.334
   228G11  C06M15268   9.978   2.512  11.412
   238G11  C07115269   1.508   5.570   7.939
   238G11  C07L15270   1.433   5.447   7.958
   238G11  C07M15271   1.478   5.329   7.901
   238G11  C07Y15272   1.395   5.212   7.902
   238G11  C08115273   1.270   5.210   7.968
   238G11  C08215274   1.194   5.095   7.953
   238G11  C0DI15275   1.054   5.076   7.987
   238G11  C0DH15276   0.959   5.147   8.059
   238G11  C0DG15277   0.825   5.084   8.051
   238G11  C0E915278   0.721   5.078   8.153
   238G11  C0E815279   0.680   4.933   8.139
   238G11  C0E715280   0.584   4.862   8.219
   238G11  C0EB15281   0.503   4.933   8.320
   238G11  C0EF15282   0.433   4.877   8.435
   238G11  C0EE15283   0.461   4.753   8.500
   238G11  C0FD15284   0.511   4.749   8.635
   238G11  C0FE15285   0.511   4.859   8.725
   238G11  H01B15286   0.477   4.957   8.695
   238G11  C0FF15287   0.557   4.859   8.854
   238G11  H01A15288   0.544   4.951   8.908
   238G11  C0FG15289   0.614   4.744   8.902
   238G11  H01815290   0.652   4.734   9.002
   238G11  C0FH15291   0.617   4.625   8.825
   238G11  C0FI15292   0.676   4.497   8.865
   238G11  H01915293   0.732   4.489   8.957
   238G11  O00K15294   0.678   4.389   8.784
   238G11  C0FL15295   0.598   4.387   8.672
   238G11  C0FK15296   0.551   4.514   8.614
   238G11  C0FM15297   0.490   4.513   8.485
   238G11  C0FN15298   0.472   4.392   8.415
   238G11  C0FP15299   0.509   4.269   8.479
   238G11  C0GO15300   0.505   4.149   8.413
   238G11  C0GN15301   0.573   4.037   8.448
   238G11  C0GR15302   0.640   4.049   8.573
   238G11  C0GS15303   0.713   3.938   8.622
   238G11  H01Q15304   0.763   3.959   8.716
   238G11  C0GT15305   0.730   3.830   8.537
   238G11  H01O15306   0.796   3.751   8.570
   238G11  C0GU15307   0.663   3.821   8.414
   238G11  H01P15308   0.678   3.728   8.362
   238G11  O00L15309   0.631   4.159   8.649
   238G11  C0GM15310   0.582   3.924   8.363
   238G11  C0GL15311   0.514   3.918   8.238
   238G11  H01R15312   0.516   3.833   8.171
   238G11  C0GK15313   0.459   4.036   8.197
   238G11  C0GP15314   0.421   4.090   8.065
   238G11  C0E215315   0.373   4.228   8.088
   238G11  C0E115316   0.417   4.306   7.974
   238G11  C0DU15317   0.493   4.427   7.988
   238G11  C0DT15318   0.494   4.522   8.087
   238G11  C0E415319   0.442   4.512   8.215
   238G11  C0E515320   0.477   4.629   8.281
   238G11  C0DS15321   0.575   4.635   8.085
   238G11  C0DR15322   0.680   4.636   7.989
   238G11  C0DD15323   0.785   4.727   7.986
   238G11  C0DC15324   0.882   4.663   7.898
   238G11  C0DP15325   0.839   4.531   7.847
   238G11  C0DA15326   0.917   4.426   7.771
   238G11  C0D915327   1.061   4.428   7.720
   238G11  C0CR15328   1.114   4.314   7.652
   238G11  C0C015329   1.036   4.203   7.630
   238G11  C0BZ15330   1.080   4.084   7.570
   238G11  C0C115331   0.997   3.973   7.545
   238G11  C0C715332   1.046   3.852   7.502
   238G11  C0C615333   0.977   3.732   7.500
   238G11  C0C915334   1.037   3.612   7.463
   238G11  C0B815335   0.956   3.493   7.453
   238G11  C0B715336   1.019   3.368   7.435
   238G11  C0B615337   0.969   3.227   7.433
   238G11  C0B515338   0.835   3.188   7.390
   238G11  H00Z15339   0.742   3.240   7.371
   238G11  C0B415340   0.860   3.051   7.336
   238G11  H01015341   0.801   2.999   7.262
   238G11  C0B315342   0.998   2.998   7.359
   238G11  C0AP15343   1.106   2.940   7.279
   238G11  C0AQ15344   1.208   3.035   7.302
   238G11  C0AR15345   1.325   3.038   7.217
   238G11  C0AS15346   1.400   3.152   7.244
   238G11  C0AT15347   1.355   3.264   7.309
   238G11  C0BA15348   1.232   3.264   7.370
   238G11  C0AU15349   1.420   3.381   7.297
   238G11  C0BE15350   1.357   3.498   7.335
   238G11  C0BI15351   1.419   3.619   7.302
   238G11  C0BJ15352   1.547   3.622   7.238
   238G11  C0BK15353   1.596   3.745   7.203
   238G11  C0BW15354   1.551   3.861   7.263
   238G11  C0BV15355   1.438   3.854   7.343
   238G11  C0BU15356   1.388   3.966   7.408
   238G11  C0BX15357   1.262   3.966   7.466
   238G11  C0BT15358   1.459   4.084   7.401
   238G11  C0CD15359   1.413   4.198   7.467
   238G11  C0CB15360   1.292   4.195   7.532
   238G11  C0CE15361   1.496   4.312   7.470
   238G11  C0CK15362   1.620   4.318   7.401
   238G11  C0BS15363   1.660   4.207   7.328
   238G11  C0CJ15364   1.774   4.212   7.242
   238G11  C0BP15365   1.806   4.100   7.157
   238G11  C0CI15366   1.904   4.107   7.060
   238G11  C0CH15367   1.950   3.984   7.008
   238G11  H01215368   2.047   3.996   6.962
   238G11  C0BN15369   1.880   3.861   7.023
   238G11  C0CG15370   1.929   3.749   6.963
   238G11  C0CF15371   2.039   3.751   6.876
   238G11  H01315372   2.094   3.842   6.853
   238G11  O00G15373   2.088   3.642   6.811
   238G11  C0AA15374   2.028   3.527   6.839
   238G11  C0A915375   2.076   3.416   6.773
   238G11  H00U15376   2.155   3.427   6.700
   238G11  C0A815377   2.017   3.292   6.783
   238G11  H00V15378   2.061   3.215   6.722
   238G11  C0A715379   1.902   3.269   6.868
   238G11  C0A615380   1.847   3.386   6.931
   238G11  C0A515381   1.747   3.385   7.028
   238G11  C0A415382   1.673   3.264   7.055
   238G11  C0A315383   1.659   3.125   7.017
   238G11  C0A215384   1.728   3.068   6.901
   238G11  C0A115385   1.717   2.932   6.865
   238G11  C0A015386   1.619   2.823   6.884
   238G11  C09Z15387   1.650   2.704   6.818
   238G11  C09Y15388   1.555   2.594   6.816
   238G11  H00Y15389   1.566   2.509   6.751
   238G11  C09X15390   1.434   2.612   6.885
   238G11  C09W15391   1.349   2.503   6.871
   238G11  H00R15392   1.374   2.419   6.807
   238G11  C0AX15393   1.231   2.498   6.945
   238G11  H00S15394   1.170   2.411   6.927
   238G11  C0AW15395   1.188   2.612   7.023
   238G11  H00T15396   1.097   2.606   7.080
   238G11  C0AN15397   1.282   2.724   7.036
   238G11  C0AO15398   1.256   2.828   7.123
   238G11  C0AM15399   1.406   2.724   6.963
   238G11  C0B215400   1.766   2.691   6.733
   238G11  O00D15401   1.777   2.596   6.651
   238G11  C0B115402   1.865   2.786   6.722
   238G11  H00W15403   1.956   2.767   6.668
   238G11  C0AL15404   1.496   2.835   6.960
   238G11  C0AK15405   1.466   2.941   7.050
   238G11  C0B015406   1.835   2.908   6.788
   238G11  C0AZ15407   1.913   3.025   6.775
   238G11  H00X15408   2.006   3.027   6.721
   238G11  C0AJ15409   1.553   3.060   7.075
   238G11  C0AH15410   1.586   3.268   7.162
   238G11  C0AE15411   1.701   3.504   7.091
   238G11  C0AD15412   1.751   3.625   7.060
   238G11  C0AY15413   1.843   3.133   6.850
   238G11  C0AB15414   1.914   3.512   6.917
   238G11  C0AC15415   1.864   3.628   6.975
   238G11  C0BM15416   1.769   3.861   7.107
   238G11  C0CM15417   1.958   4.236   7.034
   238G11  C09M15418   1.957   4.340   7.136
   238G11  C09815419   2.071   4.428   7.149
   238G11  C08R15420   2.107   4.553   7.222
   238G11  C08Q15421   2.233   4.608   7.200
   238G11  C08P15422   2.291   4.741   7.200
   238G11  C08Y15423   2.390   4.763   7.105
   238G11  C09715424   2.418   4.665   7.005
   238G11  C09615425   2.444   4.725   6.886
   238G11  C09015426   2.487   4.858   6.922
   238G11  C09515427   2.531   4.958   6.828
   238G11  C09415428   2.564   5.093   6.864
   238G11  C08J15429   2.543   5.160   6.992
   238G11  C08I15430   2.505   5.292   6.965
   238G11  C08H15431   2.445   5.357   7.079
   238G11  C08G15432   2.396   5.245   7.163
   238G11  C08F15433   2.335   5.225   7.292
   238G11  C08E15434   2.313   5.337   7.377
   238G11  C05915435   2.371   5.466   7.364
   238G11  C05815436   2.339   5.569   7.457
   238G11  C05715437   2.385   5.701   7.450
   238G11  C05615438   2.479   5.729   7.350
   238G11  C05515439   2.541   5.632   7.279
   238G11  C05415440   2.601   5.689   7.168
   238G11  C05315441   2.577   5.831   7.170
   238G11  C05215442   2.601   5.935   7.072
   238G11  C05115443   2.650   5.903   6.937
   238G11  C05U15444   2.650   5.769   6.875
   238G11  C05T15445   2.605   5.639   6.922
   238G11  C06K15446   2.676   5.549   6.841
   238G11  H00J15447   2.683   5.444   6.865
   238G11  C06L15448   2.738   5.612   6.723
   238G11  H00I15449   2.800   5.573   6.643
   238G11  C05V15450   2.724   5.750   6.753
   238G11  C06J15451   2.772   5.852   6.678
   238G11  H00K15452   2.829   5.827   6.589
   238G11  C05X15453   2.738   5.981   6.712
   238G11  C06I15454   2.754   6.097   6.629
   238G11  H00L15455   2.810   6.087   6.538
   238G11  C04Z15456   2.713   6.227   6.664
   238G11  C06H15457   2.727   6.329   6.563
   238G11  H00H15458   2.767   6.308   6.465
   238G11  C04Y15459   2.682   6.460   6.599
   238G11  C06G15460   2.698   6.563   6.503
   238G11  O00915461   2.757   6.553   6.394
   238G11  O00815462   2.653   6.691   6.540
   238G11  C04P15463   2.597   6.715   6.661
   238G11  C04J15464   2.541   6.847   6.696
   238G11  C04Q15465   2.528   6.962   6.622
   238G11  H00E15466   2.578   6.956   6.527
   238G11  C04M15467   2.464   7.080   6.666
   238G11  C04R15468   2.456   7.200   6.589
   238G11  H00F15469   2.501   7.209   6.492
   238G11  C04S15470   2.381   7.301   6.632
   238G11  H00G15471   2.357   7.382   6.564
   238G11  O00715472   2.324   7.309   6.754
   238G11  C03V15473   2.341   7.199   6.835
   238G11  C03U15474   2.281   7.192   6.959
   238G11  O00615475   2.207   7.302   6.991
   238G11  C03F15476   2.141   7.309   7.104
   238G11  C03E15477   2.130   7.200   7.192
   238G11  C03D15478   2.196   7.081   7.159
   238G11  C03C15479   2.192   6.965   7.242
   238G11  C03B15480   2.117   6.979   7.356
   238G11  C03A15481   2.110   6.875   7.450
   238G11  C03915482   2.184   6.761   7.431
   238G11  C03815483   2.138   6.674   7.541
   238G11  C03715484   2.042   6.754   7.612
   238G11  C03615485   1.969   6.703   7.720
   238G11  C02R15486   1.868   6.761   7.791
   238G11  C03515487   1.830   6.657   7.873
   238G11  C03R15488   1.908   6.541   7.862
   238G11  C03S15489   1.849   6.417   7.875
   238G11  C04915490   1.910   6.314   7.821
   238G11  C04815491   2.020   6.344   7.735
   238G11  C03P15492   2.055   6.472   7.682
   238G11  C04715493   2.086   6.224   7.693
   238G11  C04615494   2.203   6.221   7.616
   238G11  C04515495   2.274   6.320   7.542
   238G11  C03T15496   2.239   6.456   7.515
   238G11  C04415497   2.321   6.499   7.410
   238G11  C04315498   2.417   6.405   7.386
   238G11  C04215499   2.449   6.404   7.250
   238G11  C04115500   2.408   6.540   7.212
   238G11  C04015501   2.450   6.608   7.090
   238G11  C03Z15502   2.417   6.741   7.041
   238G11  C04H15503   2.479   6.751   6.915
   238G11  C04G15504   2.532   6.633   6.878
   238G11  C03N15505   2.339   6.854   7.089
   238G11  C03Y15506   2.345   6.965   7.001
   238G11  C03X15507   2.413   6.971   6.875
   238G11  C04F15508   2.514   6.542   6.976
   238G11  C04E15509   2.555   6.407   6.947
   238G11  C04O15510   2.615   6.380   6.824
   238G11  C04D15511   2.540   6.295   7.032
   238G11  C04V15512   2.592   6.166   6.995
   238G11  C04W15513   2.653   6.139   6.872
   238G11  C04C15514   2.489   6.285   7.168
   238G11  C04L15515   2.514   6.149   7.204
   238G11  C04U15516   2.482   6.094   7.335
   238G11  C05Q15517   2.470   5.960   7.363
   238G11  C05P15518   2.389   5.933   7.475
   238G11  C04T15519   2.346   6.057   7.519
   238G11  C04B15520   2.408   6.155   7.441
   238G11  C03M15521   2.323   6.605   7.314
   238G11  C04A15522   2.378   6.285   7.456
   238G11  C05H15523   2.240   6.090   7.602
   238G11  C05G15524   2.144   6.008   7.676
   238G11  C05F15525   2.146   5.872   7.687
   238G11  C05E15526   2.036   5.790   7.720
   238G11  C05L15527   1.902   5.804   7.773
   238G11  C05K15528   1.854   5.935   7.813
   238G11  C05J15529   1.911   6.064   7.788
   238G11  C06615530   1.723   5.932   7.871
   238G11  C06515531   1.654   5.813   7.898
   238G11  C06415532   1.710   5.688   7.855
   238G11  C06N15533   1.530   5.811   7.961
   238G11  C06915534   1.469   5.931   7.997
   238G11  C06P15535   1.341   5.930   8.059
   238G11  C06R15536   1.278   6.047   8.101
   238G11  C06B15537   1.344   6.165   8.079
   238G11  C06S15538   1.280   6.286   8.115
   238G11  C02G15539   1.346   6.408   8.100
   238G11  C02F15540   1.283   6.524   8.132
   238G11  C02715541   1.151   6.522   8.177
   238G11  C02615542   1.083   6.643   8.197
   238G11  C00E15543   0.947   6.644   8.227
   238G11  C00D15544   0.882   6.762   8.242
   238G11  C00C15545   0.753   6.754   8.265
   238G11  C00B15546   0.681   6.640   8.301
   238G11  C01515547   0.752   6.521   8.299
   238G11  C07F15548   0.684   6.404   8.328
   238G11  C07E15549   0.750   6.285   8.304
   238G11  C06W15550   0.884   6.284   8.263
   238G11  C06V15551   0.951   6.406   8.236
   238G11  C06X15552   0.945   6.169   8.237
   238G11  C07B15553   0.882   6.053   8.259
   238G11  C07C15554   0.744   6.044   8.290
   238G11  C0FU15555   0.683   5.924   8.315
   238G11  C0F715556   0.548   5.922   8.354
   238G11  C0F615557   0.492   5.800   8.367
   238G11  C0F815558   0.362   5.798   8.415
   238G11  C0F915559   0.302   5.674   8.442
   238G11  C0FA15560   0.172   5.674   8.499
   238G11  C0FZ15561   0.102   5.792   8.518
   238G11  C0G015562  -0.026   5.791   8.576
   238G11  C0GD15563  -0.070   5.676   8.642
   238G11  C0FC15564  -0.002   5.557   8.625
   238G11  C0GH15565  -0.037   5.438   8.695
   238G11  C0EY15566   0.024   5.320   8.665
   238G11  C0EX15567  -0.004   5.202   8.741
   238G11  C0EW15568   0.065   5.085   8.707
   238G11  C0FR15569   0.034   4.972   8.783
   238G11  H01D15570   0.078   4.873   8.778
   238G11  C0FS15571  -0.059   4.970   8.892
   238G11  H01C15572  -0.085   4.878   8.941
   238G11  C0GJ15573  -0.116   5.094   8.922
   238G11  H01N15574  -0.180   5.103   9.009
   238G11  C0EV15575   0.168   5.078   8.611
   238G11  C0FT15576   0.243   4.962   8.581
   238G11  H01E15577   0.220   4.868   8.630
   238G11  C0EU15578   0.201   5.196   8.550
   238G11  C0ET15579   0.313   5.203   8.469
   238G11  C0EI15580   0.367   5.318   8.421
   238G11  C0F115581   0.307   5.436   8.454
   238G11  C0F015582   0.183   5.436   8.524
   238G11  C0EH15583   0.485   5.315   8.343
   238G11  C0EG15584   0.544   5.193   8.293
   238G11  C0EJ15585   0.546   5.436   8.316
   238G11  C0F315586   0.484   5.556   8.353
   238G11  C0EK15587   0.679   5.439   8.266
   238G11  C0EL15588   0.745   5.316   8.219
   238G11  C0EM15589   0.881   5.339   8.181
   238G11  C0EN15590   0.939   5.465   8.187
   238G11  C07I15591   1.069   5.471   8.143
   238G11  C07415592   1.141   5.587   8.114
   238G11  C07315593   1.264   5.572   8.061
   238G11  C07215594   1.334   5.693   8.040
   238G11  C07515595   1.080   5.698   8.157
   238G11  C07615596   0.945   5.700   8.201
   238G11  C07815597   0.882   5.814   8.245
   238G11  C07G15598   1.146   5.816   8.145
   238G11  C07015599   1.081   5.933   8.178
   238G11  C07Z15600   1.108   5.343   8.101
   238G11  C07715601   0.872   5.582   8.205
   238G11  C0EO15602   0.745   5.562   8.259
   238G11  C0F415603   0.687   5.681   8.298
   238G11  C0EQ15604   0.370   5.084   8.424
   238G11  C0FQ15605  -0.094   5.206   8.843
   238G11  C0GI15606  -0.166   5.327   8.864
   238G11  H01L15607  -0.238   5.335   8.945
   238G11  C0EZ15608   0.131   5.315   8.572
   238G11  C0GG15609  -0.139   5.441   8.788
   238G11  C0GF15610  -0.223   5.554   8.793
   238G11  H01M15611  -0.312   5.557   8.854
   238G11  C0GE15612  -0.186   5.669   8.718
   238G11  H01K15613  -0.244   5.759   8.730
   238G11  O00J15614  -0.104   5.908   8.579
   238G11  C0GA15615  -0.046   6.027   8.530
   238G11  C0G915616  -0.118   6.148   8.523
   238G11  H01H15617  -0.222   6.147   8.554
   238G11  C0G815618  -0.066   6.272   8.481
   238G11  C0G715619  -0.139   6.386   8.459
   238G11  H01I15620  -0.246   6.372   8.462
   238G11  O00I15621  -0.089   6.497   8.394
   238G11  C0G615622   0.045   6.506   8.392
   238G11  H01J15623   0.080   6.603   8.362
   238G11  C02D15624   0.128   6.392   8.414
   238G11  C02C15625   0.266   6.398   8.398
   238G11  C01715626   0.341   6.524   8.384
   238G11  C01615627   0.481   6.528   8.358
   238G11  O00115628   0.280   6.649   8.398
   238G11  C01815629   0.332   6.772   8.361
   238G11  C00915630   0.471   6.773   8.327
   238G11  C00815631   0.549   6.888   8.304
   238G11  C00715632   0.518   7.033   8.286
   238G11  C00615633   0.390   7.092   8.284
   238G11  C00515634   0.369   7.232   8.263
   238G11  C00415635   0.461   7.333   8.219
   238G11  C00315636   0.604   7.332   8.172
   238G11  C00215637   0.660   7.445   8.101
   238G11  C00P15638   0.790   7.443   8.045
   238G11  C00O15639   0.839   7.542   7.964
   238G11  C00N15640   0.970   7.544   7.916
   238G11  C01015641   1.018   7.644   7.833
   238G11  C01115642   1.151   7.646   7.782
   238G11  C01Q15643   1.194   7.747   7.691
   238G11  C01U15644   1.104   7.832   7.637
   238G11  C01215645   0.974   7.835   7.693
   238G11  H00015646   0.904   7.908   7.657
   238G11  C01V15647   1.151   7.912   7.532
   238G11  H00715648   1.080   7.981   7.488
   238G11  O00515649   1.279   7.921   7.482
   238G11  C01W15650   1.371   7.846   7.555
   238G11  C03115651   1.509   7.860   7.526
   238G11  C03215652   1.604   7.776   7.591
   238G11  H00A15653   1.705   7.796   7.557
   238G11  C03315654   1.556   7.684   7.682
   238G11  H00B15655   1.622   7.613   7.728
   238G11  C01O15656   1.418   7.655   7.691
   238G11  C01N15657   1.370   7.544   7.761
   238G11  C01M15658   1.453   7.418   7.783
   238G11  C01L15659   1.570   7.336   7.729
   238G11  C01K15660   1.576   7.223   7.809
   238G11  C01Y15661   1.644   7.104   7.781
   238G11  C02I15662   1.740   7.101   7.684
   238G11  C02N15663   1.824   6.987   7.679
   238G11  C02M15664   1.924   6.989   7.579
   238G11  C02L15665   1.940   7.092   7.492
   238G11  C02K15666   1.856   7.209   7.506
   238G11  C02U15667   1.884   7.316   7.424
   238G11  C02V15668   1.989   7.322   7.333
   238G11  C03H15669   2.027   7.443   7.264
   238G11  H00C15670   2.000   7.541   7.302
   238G11  C02W15671   1.796   7.421   7.421
   238G11  C02X15672   1.690   7.413   7.510
   238G11  C02Y15673   1.602   7.508   7.449
   238G11  H00815674   1.499   7.525   7.478
   238G11  C02Z15675   1.670   7.578   7.336
   238G11  O00415676   1.634   7.682   7.277
   238G11  O00315677   1.779   7.511   7.318
   238G11  C02J15678   1.756   7.214   7.602
   238G11  C01Z15679   1.610   6.998   7.864
   238G11  C02015680   1.493   7.002   7.946
   238G11  C01I15681   1.423   7.118   7.965
   238G11  C01H15682   1.298   7.119   8.018
   238G11  C00K15683   1.225   7.231   8.007
   238G11  C01S15684   1.267   7.338   7.935
   238G11  C01415685   1.184   7.443   7.902
   238G11  C00J15686   1.091   7.228   8.047
   238G11  C00I15687   1.040   7.116   8.104
   238G11  C00H15688   1.123   7.004   8.125
   238G11  C00G15689   1.073   6.887   8.176
   238G11  C00S15690   0.907   7.116   8.149
   238G11  C00T15691   0.869   7.004   8.214
   238G11  C00U15692   0.736   6.998   8.250
   238G11  C00R15693   0.827   7.222   8.135
   238G11  C00L15694   1.008   7.338   8.026
   238G11  C02815695   1.251   7.003   8.073
   238G11  C02315696   1.326   6.885   8.071
   238G11  C02415697   1.273   6.769   8.117
   238G11  C02115698   1.442   6.885   7.995
   238G11  C02215699   1.508   6.767   7.983
   238G11  C02H15700   1.458   6.650   8.036
   238G11  C03015701   1.527   6.528   8.012
   238G11  C03415702   1.652   6.536   7.958
   238G11  C02P15703   1.632   6.769   7.917
   238G11  C02B15704   1.681   6.881   7.849
   238G11  C01J15705   1.476   7.228   7.903
   238G11  C01X15706   1.664   7.327   7.614
   238G11  C01T15707   1.402   7.343   7.888
   238G11  H00915708   1.548   7.940   7.465
   238G11  C01P15709   1.326   7.752   7.647
   238G11  C01R15710   1.241   7.544   7.818
   238G11  C00Z15711   0.929   7.742   7.791
   238G11  O00015712   0.802   7.750   7.848
   238G11  C00M15713   1.054   7.445   7.950
   238G11  C00Y15714   0.757   7.652   7.931
   238G11  C01315715   0.630   7.667   7.987
   238G11  H00115716   0.572   7.756   7.970
   238G11  C00Q15717   0.876   7.338   8.073
   238G11  C00115718   0.580   7.564   8.078
   238G11  C00015719   0.457   7.568   8.143
   238G11  H00615720   0.390   7.653   8.142
   238G11  C00W15721   0.690   7.220   8.184
   238G11  C01G15722   0.404   7.457   8.212
   238G11  H00515723   0.309   7.486   8.256
   238G11  C01C15724   0.226   7.251   8.292
   238G11  H00215725   0.170   7.343   8.290
   238G11  C01B15726   0.173   7.117   8.334
   238G11  C01D15727   0.035   7.082   8.354
   238G11  H00315728  -0.043   7.153   8.335
   238G11  C01E15729   0.015   6.957   8.390
   238G11  H00415730  -0.082   6.922   8.423
   238G11  O00215731   0.115   6.864   8.414
   238G11  C01A15732   0.274   7.022   8.328
   238G11  C00V15733   0.642   7.097   8.245
   238G11  C01915734   0.240   6.887   8.366
   238G11  C02E15735   0.338   6.282   8.393
   238G11  C0FX15736   0.277   6.160   8.413
   238G11  C0FW15737   0.350   6.041   8.408
   238G11  C0GB15738   0.140   6.152   8.448
   238G11  C0G315739   0.474   6.285   8.378
   238G11  C07H15740   0.547   6.165   8.352
   238G11  C0GC15741   0.069   6.274   8.452
   238G11  C0G215742   0.084   6.034   8.476
   238G11  C0G115743   0.159   5.911   8.477
   238G11  C0FB15744   0.115   5.556   8.546
   238G11  C0F215745   0.362   5.556   8.417
   238G11  C0FY15746   0.293   5.918   8.437
   238G11  C0F515747   0.553   5.678   8.340
   238G11  C0FV15748   0.480   6.045   8.373
   238G11  C07915749   0.754   5.806   8.291
   238G11  C07A15750   0.950   5.934   8.231
   238G11  C06Y15751   1.081   6.170   8.190
   238G11  C07D15752   0.681   6.166   8.318
   238G11  C01F15753   0.549   6.405   8.358
   238G11  C00A15754   0.546   6.649   8.334
   238G11  C00X15755   0.684   6.874   8.284
   238G11  C00F15756   0.942   6.886   8.215
   238G11  C02915757   0.887   6.526   8.258
   238G11  C02515758   1.145   6.766   8.171
   238G11  C06U15759   1.083   6.404   8.198
   238G11  C02A15760   1.341   6.647   8.105
   238G11  C05Y15761   1.468   6.408   8.042
   238G11  C05Z15762   1.531   6.289   7.996
   238G11  C06015763   1.663   6.295   7.947
   238G11  C06215764   1.728   6.176   7.902
   238G11  C06T15765   1.147   6.286   8.170
   238G11  C06A15766   1.470   6.165   8.022
   238G11  C06Z15767   1.147   6.052   8.155
   238G11  C06Q15768   1.279   5.811   8.087
   238G11  C06815769   1.531   6.048   7.978
   238G11  C06715770   1.661   6.052   7.916
   238G11  C06315771   1.829   5.686   7.791
   238G11  C06C15772   1.877   5.559   7.748
   238G11  C06D15773   1.996   5.545   7.687
   238G11  C06E15774   2.043   5.428   7.624
   238G11  C07Q15775   1.975   5.312   7.640
   238G11  C07P15776   1.855   5.319   7.714
   238G11  C07T15777   1.779   5.208   7.726
   238G11  C07U15778   1.654   5.216   7.780
   238G11  C07V15779   1.573   5.102   7.786
   238G11  C08415780   1.623   4.981   7.727
   238G11  C08C15781   1.753   4.971   7.680
   238G11  C08B15782   1.793   4.856   7.608
   238G11  C08A15783   1.918   4.860   7.549
   238G11  C08915784   2.003   4.970   7.539
   238G11  C08815785   2.110   4.975   7.441
   238G11  C08715786   2.177   5.095   7.415
   238G11  C08615787   2.139   5.202   7.491
   238G11  C08X15788   2.138   4.861   7.358
   238G11  C08T15789   2.044   4.748   7.370
   238G11  C08D15790   1.959   5.084   7.610
   238G11  C08U15791   1.954   4.745   7.473
   238G11  C08V15792   1.871   4.637   7.457
   238G11  C0CY15793   1.747   4.639   7.519
   238G11  C0CX15794   1.667   4.527   7.495
   238G11  C0CW15795   1.540   4.526   7.558
   238G11  C0CV15796   1.498   4.643   7.632
   238G11  C0D415797   1.580   4.751   7.641
   238G11  C0CU15798   1.372   4.641   7.687
   238G11  C0CT15799   1.289   4.531   7.685
   238G11  C0CS15800   1.329   4.418   7.611
   238G11  C0D615801   1.338   4.760   7.751
   238G11  C0EC15802   1.415   4.874   7.766
   238G11  C07X15803   1.370   4.989   7.827
   238G11  C0DL15804   1.213   4.756   7.803
   238G11  C0DK15805   1.166   4.875   7.856
   238G11  C0DN15806   1.036   4.859   7.888
   238G11  C0D815807   1.118   4.660   7.793
   238G11  C08W15808   1.906   4.551   7.359
   238G11  C0CQ15809   1.826   4.424   7.344
   238G11  C09315810   1.709   4.750   7.591
   238G11  C09215811   1.539   4.871   7.711
   238G11  C08515812   1.835   5.085   7.682
   238G11  C07S15813   2.027   5.198   7.582
   238G11  C06F15814   2.159   5.434   7.542
   238G11  C07O15815   1.804   5.443   7.763
   238G11  C07N15816   1.678   5.443   7.827
   238G11  C05D15817   2.070   5.663   7.681
   238G11  C05C15818   2.188   5.660   7.614
   238G11  C05N15819   2.233   5.790   7.613
   238G11  C05M15820   2.042   6.091   7.723
   238G11  C05I15821   1.854   6.182   7.840
   238G11  C06115822   1.722   6.418   7.933
   238G11  C02Q15823   1.698   6.653   7.914
   238G11  C02O15824   1.790   6.878   7.768
   238G11  C03Q15825   1.983   6.572   7.754
   238G11  C03O15826   2.142   6.530   7.578
   238G11  C03L15827   2.258   6.734   7.312
   238G11  C02S15828   2.020   6.879   7.556
   238G11  C02T15829   2.042   7.093   7.391
   238G11  C03K15830   2.262   6.847   7.211
   238G11  C03I15831   2.052   7.204   7.307
   238G11  C03G15832   2.101   7.435   7.148
   238G11  H00D15833   2.134   7.523   7.094
   238G11  C03J15834   2.274   7.077   7.040
   238G11  C03W15835   2.410   7.083   6.793
   238G11  C04I15836   2.480   6.858   6.824
   238G11  C04K15837   2.584   6.615   6.749
   238G11  C04N15838   2.626   6.484   6.726
   238G11  C04X15839   2.660   6.250   6.789
   238G11  C05015840   2.678   6.003   6.838
   238G11  C05W15841   2.571   6.072   7.099
   238G11  C05S15842   2.572   5.602   7.064
   238G11  C05R15843   2.510   5.850   7.293
   238G11  C05O15844   2.334   5.811   7.520
   238G11  C05B15845   2.229   5.551   7.533
   238G11  C05A15846   2.468   5.514   7.264
   238G11  C07R15847   2.203   5.325   7.473
   238G11  C08N15848   2.275   5.102   7.317
   238G11  C08M15849   2.304   4.988   7.237
   238G11  C08L15850   2.399   4.997   7.129
   238G11  C09115851   2.493   5.485   7.129
   238G11  C09K15852   2.477   5.308   6.829
   238G11  H00M15853   2.415   5.385   6.786
   238G11  C08K15854   2.444   5.127   7.095
   238G11  C09J15855   2.517   5.183   6.760
   238G11  C09I15856   2.486   5.098   6.650
   238G11  C09L15857   2.455   5.135   6.512
   238G11  H00N15858   2.442   5.234   6.470
   238G11  C09Q15859   2.445   5.031   6.425
   238G11  H00O15860   2.420   5.053   6.323
   238G11  O00B15861   2.465   4.896   6.460
   238G11  C09G15862   2.470   4.860   6.596
   238G11  C09F15863   2.440   4.722   6.622
   238G11  O00A15864   2.409   4.647   6.508
   238G11  C09P15865   2.423   4.511   6.534
   238G11  H00P15866   2.518   4.471   6.504
   238G11  C09O15867   2.337   4.462   6.636
   238G11  C09D15868   2.357   4.536   6.759
   238G11  C09C15869   2.312   4.496   6.890
   238G11  C09N15870   2.213   4.396   6.940
   238G11  C09T15871   2.120   4.333   6.851
   238G11  C09S15872   2.156   4.307   6.715
   238G11  C0CP15873   2.061   4.205   6.681
   238G11  C0CN15874   1.969   4.170   6.781
   238G11  C0CO15875   1.879   4.070   6.745
   238G11  H01415876   1.791   4.050   6.804
   238G11  C0CZ15877   1.900   3.997   6.625
   238G11  H01515878   1.834   3.913   6.609
   238G11  C0D015879   2.009   4.016   6.538
   238G11  C0G515880   2.045   3.926   6.426
   238G11  H01F15881   1.988   3.841   6.391
   238G11  C0G415882   2.146   3.961   6.343
   238G11  H01G15883   2.172   3.892   6.264
   238G11  O00H15884   2.216   4.076   6.359
   238G11  C0D215885   2.198   4.155   6.469
   238G11  C09V15886   2.270   4.270   6.498
   238G11  H00Q15887   2.354   4.290   6.434
   238G11  C0D115888   2.089   4.128   6.562
   238G11  C09R15889   2.261   4.344   6.620
   238G11  C09H15890   2.504   4.963   6.691
   238G11  C09E15891   2.421   4.662   6.756
   238G11  C09B15892   2.354   4.548   7.006
   238G11  C08Z15893   2.431   4.882   7.056
   238G11  C08O15894   2.241   4.861   7.262
   238G11  C09A15895   2.291   4.503   7.124
   238G11  C08S15896   2.012   4.628   7.296
   238G11  C09915897   2.194   4.410   7.080
   238G11  C09U15898   2.011   4.246   6.899
   238G11  C0BO15899   1.732   3.982   7.173
   238G11  C0CL15900   1.856   4.325   7.243
   238G11  C0D315901   1.709   4.425   7.412
   238G11  C0D515902   1.452   4.420   7.544
   238G11  C0BR15903   1.581   4.090   7.324
   238G11  C0BQ15904   1.623   3.975   7.258
   238G11  C0BL15905   1.700   3.743   7.117
   238G11  C0AF15906   1.595   3.503   7.183
   238G11  C0BH15907   1.364   3.735   7.351
   238G11  C0BG15908   1.238   3.730   7.411
   238G11  C0BD15909   1.231   3.495   7.397
   238G11  C0AG15910   1.539   3.388   7.226
   238G11  C0AI15911   1.516   3.154   7.166
   238G11  C0AV15912   1.348   2.936   7.125
   238G11  C0BB15913   1.169   3.144   7.382
   238G11  O00C15914   1.132   2.830   7.194
   238G11  C0BC15915   1.047   3.113   7.430
   238G11  C0B915916   1.161   3.376   7.410
   238G11  O00E15917   0.822   3.499   7.480
   238G11  C0CA15918   0.751   3.618   7.515
   238G11  O00F15919   0.629   3.613   7.527
   238G11  C0BF15920   1.170   3.611   7.426
   238G11  C0C515921   0.840   3.733   7.532
   238G11  C0C415922   0.783   3.857   7.574
   238G11  H01115923   0.677   3.874   7.591
   238G11  C0C815924   1.180   3.847   7.463
   238G11  C0C215925   0.864   3.973   7.579
   238G11  C0C315926   0.815   4.097   7.629
   238G11  C0DY15927   0.688   4.131   7.675
   238G11  H01615928   0.597   4.074   7.676
   238G11  C0DX15929   0.703   4.259   7.735
   238G11  C0DW15930   0.606   4.295   7.834
   238G11  C0BY15931   1.214   4.077   7.526
   238G11  C0DB15932   0.901   4.199   7.660
   238G11  C0CC15933   1.243   4.310   7.596
   238G11  C0D715934   1.155   4.534   7.735
   238G11  C0DZ15935   0.844   4.305   7.730
   238G11  C0DM15936   1.000   4.724   7.851
   238G11  C0DQ15937   0.712   4.520   7.910
   238G11  C0DV15938   0.608   4.417   7.903
   238G11  C0E015939   0.494   4.220   7.885
   238G11  C0FO15940   0.404   4.261   8.224
   238G11  C0E315941   0.509   4.094   7.949
   238G11  H01715942   0.599   4.035   7.944
   238G11  C0GV15943   0.436   4.143   8.286
   238G11  C0ES15944   0.428   4.389   8.280
   238G11  C0GQ15945   0.580   4.269   8.598
   238G11  C0FJ15946   0.562   4.632   8.689
   238G11  C0ED15947   0.467   4.639   8.423
   238G11  C0ER15948   0.338   4.965   8.486
   238G11  C0EP15949   0.478   5.072   8.338
   238G11  C0E615950   0.547   4.720   8.196
   238G11  C0DE15951   0.767   4.869   8.038
   238G11  C0EA15952   0.667   5.193   8.218
   238G11  C0DF15953   0.842   4.974   7.978
   238G11  C08015954   0.982   5.262   8.117
   238G11  C0DO15955   0.982   4.966   7.952
   238G11  C0DJ15956   1.245   4.991   7.879
   238G11  C07K15957   1.234   5.331   8.033
   238G11  C07W15958   1.442   5.101   7.836
   238G11  C08315959   1.602   5.328   7.833
   238G11  C07J15960   1.309   5.452   8.016
   238G11  C06O15961   1.458   5.692   7.981
   238G11  C06M15962   1.634   5.566   7.875
   248G11  C07115963   0.722   7.575   7.067
   248G11  C07L15964   0.751   7.671   6.967
   248G11  C07M15965   0.662   7.768   6.929
   248G11  C07Y15966   0.683   7.847   6.819
   248G11  C08115967   0.800   7.842   6.738
   248G11  C08215968   0.813   7.928   6.628
   248G11  C0DI15969   0.906   7.920   6.513
   248G11  C0DH15970   1.023   7.843   6.485
   248G11  C0DG15971   1.081   7.874   6.357
   248G11  C0E915972   1.216   7.899   6.320
   248G11  C0E815973   1.220   8.032   6.252
   248G11  C0E715974   1.333   8.109   6.194
   248G11  C0EB15975   1.469   8.043   6.187
   248G11  C0EF15976   1.597   8.098   6.151
   248G11  C0EE15977   1.644   8.232   6.174
   248G11  C0FD15978   1.751   8.259   6.259
   248G11  C0FE15979   1.817   8.163   6.340
   248G11  H01B15980   1.784   8.060   6.329
   248G11  C0FF15981   1.912   8.196   6.439
   248G11  H01A15982   1.957   8.115   6.495
   248G11  C0FG15983   1.933   8.332   6.458
   248G11  H01815984   2.004   8.357   6.535
   248G11  C0FH15985   1.881   8.435   6.371
   248G11  C0FI15986   1.920   8.578   6.368
   248G11  H01915987   1.986   8.615   6.445
   248G11  O00K15988   1.876   8.666   6.276
   248G11  C0FL15989   1.778   8.623   6.188
   248G11  C0FK15990   1.731   8.490   6.183
   248G11  C0FM15991   1.621   8.458   6.099
   248G11  C0FN15992   1.567   8.556   6.016
   248G11  C0FP15993   1.616   8.688   6.017
   248G11  C0GO15994   1.557   8.787   5.947
   248G11  C0GN15995   1.591   8.921   5.955
   248G11  C0GR15996   1.707   8.950   6.031
   248G11  C0GS15997   1.743   9.083   6.056
   248G11  H01Q15998   1.826   9.094   6.124
   248G11  C0GT15999   1.662   9.186   6.010
   248G11  H01O16000   1.695   9.286   6.035
   248G11  C0GU16001   1.550   9.153   5.938
   248G11  H01P16002   1.489   9.238   5.909
   248G11  O00L16003   1.771   8.852   6.105
   248G11  C0GM16004   1.505   9.022   5.903
   248G11  C0GL16005   1.390   8.983   5.833
   248G11  H01R16006   1.329   9.064   5.796
   248G11  C0GK16007   1.357   8.851   5.811
   248G11  C0GP16008   1.247   8.776   5.758
   248G11  C0E216009   1.291   8.637   5.760
   248G11  C0E116010   1.172   8.558   5.786
   248G11  C0DU16011   1.157   8.463   5.892
   248G11  C0DT16012   1.250   8.384   5.956
   248G11  C0E416013   1.385   8.408   5.971
   248G11  C0E516014   1.437   8.314   6.057
   248G11  C0DS16015   1.214   8.295   6.059
   248G11  C0DR16016   1.083   8.295   6.104
   248G11  C0DD16017   1.023   8.215   6.203
   248G11  C0DC16018   0.894   8.282   6.225
   248G11  C0DP16019   0.868   8.401   6.141
   248G11  C0DA16020   0.750   8.493   6.138
   248G11  C0D916021   0.624   8.497   6.230
   248G11  C0CR16022   0.521   8.603   6.214
   248G11  C0C016023   0.527   8.694   6.109
   248G11  C0BZ16024   0.431   8.788   6.074
   248G11  C0C116025   0.445   8.872   5.963
   248G11  C0C716026   0.343   8.961   5.936
   248G11  C0C616027   0.342   9.020   5.807
   248G11  C0C916028   0.233   9.099   5.768
   248G11  C0B816029   0.229   9.152   5.637
   248G11  C0B716030   0.121   9.232   5.587
   248G11  C0B616031   0.078   9.283   5.456
   248G11  C0B516032   0.118   9.246   5.325
   248G11  H00Z16033   0.195   9.176   5.295
   248G11  C0B416034   0.029   9.319   5.237
   248G11  H01016035   0.026   9.326   5.129
   248G11  C0B316036  -0.075   9.383   5.319
   248G11  C0AP16037  -0.214   9.438   5.341
   248G11  C0AQ16038  -0.213   9.445   5.478
   248G11  C0AR16039  -0.331   9.448   5.552
   248G11  C0AS16040  -0.311   9.419   5.688
   248G11  C0AT16041  -0.199   9.357   5.740
   248G11  C0BA16042  -0.090   9.348   5.660
   248G11  C0AU16043  -0.198   9.285   5.855
   248G11  C0BE16044  -0.085   9.216   5.897
   248G11  C0BI16045  -0.091   9.143   6.017
   248G11  C0BJ16046  -0.212   9.143   6.089
   248G11  C0BK16047  -0.224   9.063   6.202
   248G11  C0BW16048  -0.117   8.992   6.250
   248G11  C0BV16049   0.002   8.995   6.178
   248G11  C0BU16050   0.109   8.908   6.214
   248G11  C0BX16051   0.225   8.899   6.136
   248G11  C0BT16052   0.097   8.827   6.324
   248G11  C0CD16053   0.198   8.732   6.354
   248G11  C0CB16054   0.311   8.720   6.275
   248G11  C0CE16055   0.173   8.646   6.456
   248G11  C0CK16056   0.063   8.657   6.536
   248G11  C0BS16057  -0.044   8.744   6.506
   248G11  C0CJ16058  -0.165   8.748   6.585
   248G11  C0BP16059  -0.263   8.841   6.551
   248G11  C0CI16060  -0.380   8.853   6.627
   248G11  C0CH16061  -0.458   8.969   6.594
   248G11  H01216062  -0.537   9.000   6.661
   248G11  C0BN16063  -0.467   9.022   6.465
   248G11  C0CG16064  -0.581   9.085   6.416
   248G11  C0CF16065  -0.709   9.089   6.492
   248G11  H01316066  -0.725   9.059   6.594
   248G11  O00G16067  -0.818   9.143   6.432
   248G11  C0AA16068  -0.817   9.163   6.297
   248G11  C0A916069  -0.943   9.179   6.242
   248G11  H00U16070  -1.033   9.152   6.294
   248G11  C0A816071  -0.944   9.231   6.112
   248G11  H00V16072  -1.046   9.241   6.076
   248G11  C0A716073  -0.834   9.255   6.035
   248G11  C0A616074  -0.703   9.217   6.093
   248G11  C0A516075  -0.580   9.235   6.033
   248G11  C0A416076  -0.563   9.314   5.913
   248G11  C0A316077  -0.640   9.370   5.807
   248G11  C0A216078  -0.775   9.356   5.801
   248G11  C0A116079  -0.847   9.412   5.688
   248G11  C0A016080  -0.822   9.474   5.557
   248G11  C09Z16081  -0.935   9.504   5.485
   248G11  C09Y16082  -0.927   9.535   5.346
   248G11  H00Y16083  -1.024   9.546   5.300
   248G11  C09X16084  -0.805   9.531   5.279
   248G11  C09W16085  -0.804   9.558   5.141
   248G11  H00R16086  -0.889   9.599   5.088
   248G11  C0AX16087  -0.690   9.541   5.061
   248G11  H00S16088  -0.685   9.551   4.954
   248G11  C0AW16089  -0.577   9.503   5.137
   248G11  H00T16090  -0.483   9.495   5.084
   248G11  C0AN16091  -0.569   9.499   5.277
   248G11  C0AO16092  -0.449   9.474   5.345
   248G11  C0AM16093  -0.690   9.506   5.350
   248G11  C0B216094  -1.069   9.503   5.534
   248G11  O00D16095  -1.165   9.540   5.471
   248G11  C0B116096  -1.096   9.445   5.662
   248G11  H00W16097  -1.197   9.439   5.700
   248G11  C0AL16098  -0.697   9.479   5.493
   248G11  C0AK16099  -0.577   9.451   5.556
   248G11  C0B016100  -0.984   9.400   5.730
   248G11  C0AZ16101  -0.992   9.344   5.861
   248G11  H00X16102  -1.088   9.320   5.906
   248G11  C0AJ16103  -0.559   9.411   5.698
   248G11  C0AH16104  -0.429   9.331   5.875
   248G11  C0AE16105  -0.460   9.189   6.098
   248G11  C0AD16106  -0.461   9.122   6.218
   248G11  C0AY16107  -0.862   9.314   5.907
   248G11  C0AB16108  -0.697   9.168   6.225
   248G11  C0AC16109  -0.578   9.128   6.290
   248G11  C0BM16110  -0.355   8.997   6.389
   248G11  C0CM16111  -0.408   8.761   6.727
   248G11  C09M16112  -0.300   8.684   6.782
   248G11  C09816113  -0.319   8.631   6.915
   248G11  C08R16114  -0.268   8.511   6.974
   248G11  C08Q16115  -0.308   8.488   7.109
   248G11  C08P16116  -0.334   8.378   7.198
   248G11  C08Y16117  -0.424   8.398   7.304
   248G11  C09716118  -0.514   8.506   7.296
   248G11  C09616119  -0.640   8.469   7.340
   248G11  C09016120  -0.621   8.343   7.409
   248G11  C09516121  -0.722   8.262   7.464
   248G11  C09416122  -0.701   8.136   7.534
   248G11  C08J16123  -0.591   8.043   7.519
   248G11  C08I16124  -0.635   7.911   7.516
   248G11  C08H16125  -0.531   7.821   7.462
   248G11  C08G16126  -0.436   7.916   7.401
   248G11  C08F16127  -0.300   7.912   7.349
   248G11  C08E16128  -0.206   7.803   7.381
   248G11  C05916129  -0.234   7.702   7.479
   248G11  C05816130  -0.129   7.614   7.519
   248G11  C05716131  -0.135   7.505   7.601
   248G11  C05616132  -0.265   7.480   7.653
   248G11  C05516133  -0.369   7.561   7.634
   248G11  C05416134  -0.485   7.495   7.648
   248G11  C05316135  -0.458   7.355   7.671
   248G11  C05216136  -0.543   7.240   7.657
   248G11  C05116137  -0.685   7.252   7.615
   248G11  C05U16138  -0.756   7.373   7.574
   248G11  C05T16139  -0.712   7.509   7.549
   248G11  C06K16140  -0.827   7.587   7.564
   248G11  H00J16141  -0.812   7.694   7.569
   248G11  C06L16142  -0.946   7.505   7.564
   248G11  H00I16143  -1.049   7.537   7.558
   248G11  C05V16144  -0.896   7.373   7.567
   248G11  C06J16145  -0.964   7.255   7.569
   248G11  H00K16146  -1.071   7.265   7.554
   248G11  C05X16147  -0.904   7.134   7.597
   248G11  C06I16148  -0.969   7.012   7.598
   248G11  H00L16149  -1.071   7.019   7.562
   248G11  C04Z16150  -0.914   6.883   7.618
   248G11  C06H16151  -0.989   6.765   7.607
   248G11  H00H16152  -1.096   6.766   7.588
   248G11  C04Y16153  -0.922   6.642   7.636
   248G11  C06G16154  -1.004   6.518   7.632
   248G11  O00916155  -1.125   6.510   7.616
   248G11  O00816156  -0.943   6.403   7.665
   248G11  C04P16157  -0.808   6.391   7.675
   248G11  C04J16158  -0.729   6.265   7.681
   248G11  C04Q16159  -0.775   6.132   7.695
   248G11  H00E16160  -0.882   6.122   7.699
   248G11  C04M16161  -0.691   6.021   7.708
   248G11  C04R16162  -0.732   5.880   7.715
   248G11  H00F16163  -0.836   5.855   7.723
   248G11  C04S16164  -0.645   5.778   7.725
   248G11  H00G16165  -0.675   5.674   7.721
   248G11  O00716166  -0.510   5.806   7.748
   248G11  C03V16167  -0.468   5.932   7.732
   248G11  C03U16168  -0.331   5.951   7.741
   248G11  O00616169  -0.253   5.839   7.747
   248G11  C03F16170  -0.123   5.847   7.714
   248G11  C03E16171  -0.055   5.972   7.697
   248G11  C03D16172  -0.133   6.089   7.709
   248G11  C03C16173  -0.073   6.216   7.686
   248G11  C03B16174   0.069   6.213   7.665
   248G11  C03A16175   0.127   6.336   7.661
   248G11  C03916176   0.062   6.459   7.668
   248G11  C03816177   0.171   6.552   7.651
   248G11  C03716178   0.293   6.477   7.649
   248G11  C03616179   0.409   6.541   7.660
   248G11  C02R16180   0.530   6.481   7.643
   248G11  C03516181   0.607   6.597   7.618
   248G11  C03R16182   0.544   6.719   7.633
   248G11  C03S16183   0.585   6.832   7.570
   248G11  C04916184   0.492   6.925   7.552
   248G11  C04816185   0.355   6.892   7.578
   248G11  C03P16186   0.308   6.757   7.613
   248G11  C04716187   0.275   7.006   7.591
   248G11  C04616188   0.147   7.008   7.644
   248G11  C04516189   0.059   6.908   7.683
   248G11  C03T16190   0.067   6.769   7.675
   248G11  C04416191  -0.065   6.719   7.716
   248G11  C04316192  -0.143   6.827   7.750
   248G11  C04216193  -0.273   6.803   7.727
   248G11  C04116194  -0.268   6.657   7.706
   248G11  C04016195  -0.382   6.573   7.708
   248G11  C03Z16196  -0.388   6.431   7.701
   248G11  C04H16197  -0.524   6.402   7.706
   248G11  C04G16198  -0.596   6.516   7.708
   248G11  C03N16199  -0.293   6.318   7.700
   248G11  C03Y16200  -0.357   6.193   7.701
   248G11  C03X16201  -0.499   6.170   7.701
   248G11  C04F16202  -0.516   6.626   7.699
   248G11  C04E16203  -0.576   6.751   7.686
   248G11  C04O16204  -0.715   6.758   7.671
   248G11  C04D16205  -0.508   6.871   7.679
   248G11  C04V16206  -0.576   6.998   7.671
   248G11  C04W16207  -0.713   7.007   7.646
   248G11  C04C16208  -0.371   6.900   7.695
   248G11  C04L16209  -0.363   7.047   7.711
   248G11  C04U16210  -0.245   7.119   7.744
   248G11  C05Q16211  -0.223   7.256   7.709
   248G11  C05P16212  -0.090   7.289   7.677
   248G11  C04T16213  -0.022   7.169   7.682
   248G11  C04B16214  -0.114   7.070   7.723
   248G11  C03M16215  -0.134   6.597   7.711
   248G11  C04A16216  -0.072   6.939   7.717
   248G11  C05H16217   0.112   7.142   7.647
   248G11  C05G16218   0.214   7.219   7.585
   248G11  C05F16219   0.208   7.359   7.558
   248G11  C05E16220   0.289   7.425   7.464
   248G11  C05L16221   0.410   7.394   7.389
   248G11  C05K16222   0.484   7.275   7.406
   248G11  C05J16223   0.444   7.158   7.478
   248G11  C06616224   0.615   7.272   7.347
   248G11  C06516225   0.658   7.380   7.263
   248G11  C06416226   0.572   7.489   7.227
   248G11  C06N16227   0.772   7.366   7.185
   248G11  C06916228   0.858   7.260   7.203
   248G11  C06P16229   0.980   7.250   7.133
   248G11  C06R16230   1.065   7.139   7.148
   248G11  C06B16231   1.029   7.035   7.229
   248G11  C06S16232   1.114   6.921   7.240
   248G11  C02G16233   1.077   6.816   7.317
   248G11  C02F16234   1.152   6.698   7.316
   248G11  C02716235   1.266   6.686   7.235
   248G11  C02616236   1.337   6.567   7.234
   248G11  C00E16237   1.446   6.554   7.151
   248G11  C00D16238   1.499   6.426   7.137
   248G11  C00C16239   1.599   6.413   7.044
   248G11  C00B16240   1.637   6.511   6.957
   248G11  C01516241   1.580   6.637   6.972
   248G11  C07F16242   1.606   6.738   6.882
   248G11  C07E16243   1.540   6.863   6.888
   248G11  C06W16244   1.439   6.879   6.985
   248G11  C06V16245   1.413   6.782   7.077
   248G11  C06X16246   1.364   6.993   6.982
   248G11  C07B16247   1.391   7.089   6.886
   248G11  C07C16248   1.490   7.072   6.790
   248G11  C0FU16249   1.510   7.172   6.693
   248G11  C0F716250   1.590   7.143   6.584
   248G11  C0F616251   1.612   7.243   6.485
   248G11  C0F816252   1.708   7.221   6.389
   248G11  C0F916253   1.743   7.330   6.302
   248G11  C0FA16254   1.844   7.306   6.206
   248G11  C0FZ16255   1.896   7.177   6.191
   248G11  C0G016256   1.993   7.151   6.096
   248G11  C0GD16257   2.043   7.254   6.016
   248G11  C0FC16258   1.991   7.382   6.032
   248G11  C0GH16259   2.049   7.494   5.967
   248G11  C0EY16260   1.988   7.620   5.981
   248G11  C0EX16261   2.045   7.734   5.920
   248G11  C0EW16262   1.987   7.861   5.939
   248G11  C0FR16263   2.044   7.979   5.872
   248G11  H01D16264   2.002   8.078   5.887
   248G11  C0FS16265   2.163   7.963   5.802
   248G11  H01C16266   2.210   8.047   5.751
   248G11  C0GJ16267   2.230   7.844   5.804
   248G11  H01N16268   2.334   7.839   5.777
   248G11  C0EV16269   1.876   7.874   6.016
   248G11  C0FT16270   1.814   7.999   6.046
   248G11  H01E16271   1.859   8.097   6.034
   248G11  C0EU16272   1.815   7.759   6.069
   248G11  C0ET16273   1.699   7.766   6.144
   248G11  C0EI16274   1.643   7.668   6.217
   248G11  C0F116275   1.719   7.546   6.222
   248G11  C0F016276   1.832   7.530   6.135
   248G11  C0EH16277   1.526   7.690   6.296
   248G11  C0EG16278   1.439   7.802   6.287
   248G11  C0EJ16279   1.493   7.589   6.386
   248G11  C0F316280   1.570   7.469   6.392
   248G11  C0EK16281   1.395   7.609   6.489
   248G11  C0EL16282   1.299   7.713   6.474
   248G11  C0EM16283   1.205   7.707   6.577
   248G11  C0EN16284   1.219   7.628   6.690
   248G11  C07I16285   1.113   7.647   6.778
   248G11  C07416286   1.078   7.548   6.873
   248G11  C07316287   0.956   7.559   6.930
   248G11  C07216288   0.926   7.458   7.022
   248G11  C07516289   1.169   7.439   6.885
   248G11  C07616290   1.275   7.420   6.795
   248G11  C07816291   1.355   7.309   6.800
   248G11  C07G16292   1.139   7.343   6.975
   248G11  C07016293   1.219   7.229   6.978
   248G11  C07Z16294   1.017   7.731   6.717
   248G11  C07716295   1.297   7.517   6.695
   248G11  C0EO16296   1.386   7.510   6.592
   248G11  C0F416297   1.457   7.387   6.593
   248G11  C0EQ16298   1.627   7.882   6.149
   248G11  C0FQ16299   2.169   7.723   5.854
   248G11  C0GI16300   2.232   7.596   5.848
   248G11  H01L16301   2.321   7.593   5.787
   248G11  C0EZ16302   1.878   7.634   6.061
   248G11  C0GG16303   2.167   7.479   5.889
   248G11  C0GF16304   2.211   7.348   5.867
   248G11  H01M16305   2.297   7.336   5.803
   248G11  C0GE16306   2.141   7.238   5.921
   248G11  H01K16307   2.189   7.145   5.892
   248G11  O00J16308   2.042   7.021   6.074
   248G11  C0GA16309   2.016   6.928   6.167
   248G11  C0G916310   2.073   6.803   6.142
   248G11  H01H16311   2.142   6.799   6.060
   248G11  C0G816312   2.038   6.698   6.226
   248G11  C0G716313   2.095   6.562   6.219
   248G11  H01I16314   2.163   6.543   6.137
   248G11  O00I16315   2.062   6.459   6.298
   248G11  C0G616316   1.978   6.496   6.400
   248G11  H01J16317   1.934   6.408   6.445
   248G11  C02D16318   1.928   6.621   6.428
   248G11  C02C16319   1.853   6.653   6.544
   248G11  C01716320   1.842   6.560   6.653
   248G11  C01616321   1.756   6.582   6.762
   248G11  O00116322   1.914   6.443   6.652
   248G11  C01816323   1.870   6.330   6.716
   248G11  C00916324   1.785   6.344   6.833
   248G11  C00816325   1.738   6.242   6.921
   248G11  C00716326   1.754   6.102   6.921
   248G11  C00616327   1.797   6.026   6.807
   248G11  C00516328   1.796   5.882   6.808
   248G11  C00416329   1.729   5.786   6.899
   248G11  C00316330   1.630   5.807   7.005
   248G11  C00216331   1.558   5.692   7.049
   248G11  C00P16332   1.442   5.710   7.134
   248G11  C00O16333   1.359   5.600   7.158
   248G11  C00N16334   1.242   5.610   7.233
   248G11  C01016335   1.153   5.505   7.246
   248G11  C01116336   1.032   5.513   7.317
   248G11  C01Q16337   0.949   5.405   7.334
   248G11  C01U16338   0.980   5.282   7.279
   248G11  C01216339   1.109   5.272   7.220
   248G11  H00016340   1.139   5.176   7.182
   248G11  C01V16341   0.878   5.179   7.293
   248G11  H00716342   0.907   5.078   7.269
   248G11  O00516343   0.755   5.193   7.347
   248G11  C01W16344   0.740   5.312   7.414
   248G11  C03116345   0.634   5.327   7.507
   248G11  C03216346   0.615   5.441   7.580
   248G11  H00A16347   0.537   5.447   7.654
   248G11  C03316348   0.703   5.544   7.562
   248G11  H00B16349   0.684   5.628   7.627
   248G11  C01O16350   0.799   5.545   7.463
   248G11  C01N16351   0.875   5.655   7.438
   248G11  C01M16352   0.837   5.787   7.487
   248G11  C01L16353   0.718   5.872   7.526
   248G11  C01K16354   0.772   5.999   7.556
   248G11  C01Y16355   0.700   6.116   7.570
   248G11  C02I16356   0.566   6.111   7.591
   248G11  C02N16357   0.493   6.232   7.613
   248G11  C02M16358   0.354   6.222   7.636
   248G11  C02L16359   0.285   6.101   7.637
   248G11  C02K16360   0.358   5.987   7.610
   248G11  C02U16361   0.286   5.866   7.611
   248G11  C02V16362   0.153   5.862   7.660
   248G11  C03H16363   0.093   5.739   7.706
   248G11  H00C16364   0.154   5.652   7.724
   248G11  C02W16365   0.344   5.758   7.554
   248G11  C02X16366   0.482   5.768   7.514
   248G11  C02Y16367   0.486   5.661   7.422
   248G11  H00816368   0.560   5.638   7.347
   248G11  C02Z16369   0.366   5.580   7.430
   248G11  O00416370   0.338   5.476   7.374
   248G11  O00316371   0.276   5.648   7.509
   248G11  C02J16372   0.502   5.992   7.583
   248G11  C01Z16373   0.779   6.232   7.555
   248G11  C02016374   0.912   6.231   7.513
   248G11  C01I16375   0.984   6.115   7.506
   248G11  C01H16376   1.108   6.099   7.445
   248G11  C00K16377   1.153   5.974   7.406
   248G11  C01S16378   1.075   5.862   7.423
   248G11  C01416379   1.095   5.745   7.359
   248G11  C00J16380   1.263   5.967   7.321
   248G11  C00I16381   1.331   6.081   7.292
   248G11  C00H16382   1.282   6.208   7.329
   248G11  C00G16383   1.343   6.323   7.281
   248G11  C00S16384   1.441   6.065   7.205
   248G11  C00T16385   1.508   6.184   7.172
   248G11  C00U16386   1.609   6.174   7.080
   248G11  C00R16387   1.484   5.946   7.155
   248G11  C00L16388   1.290   5.847   7.263
   248G11  C02816389   1.171   6.219   7.408
   248G11  C02316390   1.107   6.347   7.424
   248G11  C02416391   1.165   6.462   7.368
   248G11  C02116392   0.984   6.350   7.484
   248G11  C02216393   0.921   6.473   7.501
   248G11  C02H16394   0.981   6.591   7.453
   248G11  C03016395   0.915   6.707   7.456
   248G11  C03416396   0.790   6.712   7.517
   248G11  C02P16397   0.791   6.472   7.553
   248G11  C02B16398   0.712   6.354   7.574
   248G11  C01J16399   0.910   6.002   7.535
   248G11  C01X16400   0.573   5.870   7.545
   248G11  C01T16401   0.947   5.877   7.488
   248G11  H00916402   0.568   5.242   7.517
   248G11  C01P16403   0.828   5.425   7.399
   248G11  C01R16404   1.003   5.640   7.372
   248G11  C00Z16405   1.195   5.381   7.201
   248G11  O00016406   1.312   5.363   7.140
   248G11  C00M16407   1.213   5.731   7.288
   248G11  C00Y16408   1.391   5.473   7.107
   248G11  C01316409   1.508   5.456   7.038
   248G11  H00116410   1.532   5.355   7.009
   248G11  C00Q16411   1.408   5.833   7.183
   248G11  C00116412   1.595   5.562   7.009
   248G11  C00016413   1.713   5.548   6.935
   248G11  H00616414   1.742   5.448   6.908
   248G11  C00W16415   1.596   5.933   7.066
   248G11  C01G16416   1.777   5.654   6.875
   248G11  H00516417   1.856   5.629   6.806
   248G11  C01C16418   1.871   5.843   6.688
   248G11  H00216419   1.890   5.741   6.658
   248G11  C01B16420   1.913   5.962   6.627
   248G11  C01D16421   2.007   5.979   6.519
   248G11  H00316422   2.041   5.899   6.455
   248G11  C01E16423   2.048   6.107   6.494
   248G11  H00416424   2.109   6.124   6.407
   248G11  O00216425   2.000   6.223   6.551
   248G11  C01A16426   1.876   6.074   6.703
   248G11  C00V16427   1.661   6.058   7.019
   248G11  C01916428   1.908   6.208   6.659
   248G11  C02E16429   1.797   6.778   6.561
   248G11  C0FX16430   1.815   6.879   6.464
   248G11  C0FW16431   1.751   7.002   6.475
   248G11  C0GB16432   1.897   6.849   6.356
   248G11  C0G316433   1.715   6.804   6.674
   248G11  C07H16434   1.645   6.927   6.681
   248G11  C0GC16435   1.957   6.721   6.339
   248G11  C0G216436   1.927   6.954   6.270
   248G11  C0G116437   1.861   7.075   6.276
   248G11  C0FB16438   1.888   7.402   6.123
   248G11  C0F216439   1.680   7.448   6.306
   248G11  C0FY16440   1.766   7.098   6.376
   248G11  C0F516441   1.546   7.369   6.490
   248G11  C0FV16442   1.662   7.023   6.583
   248G11  C07916443   1.439   7.293   6.697
   248G11  C07A16444   1.326   7.211   6.891
   248G11  C06Y16445   1.263   7.013   7.073
   248G11  C07D16446   1.563   6.956   6.792
   248G11  C01F16447   1.692   6.708   6.773
   248G11  C00A16448   1.727   6.478   6.852
   248G11  C00X16449   1.661   6.285   7.027
   248G11  C00F16450   1.461   6.312   7.205
   248G11  C02916451   1.484   6.663   7.071
   248G11  C02516452   1.285   6.450   7.297
   248G11  C06U16453   1.302   6.795   7.157
   248G11  C02A16454   1.104   6.584   7.384
   248G11  C05Y16455   0.959   6.822   7.389
   248G11  C05Z16456   0.880   6.939   7.390
   248G11  C06016457   0.750   6.942   7.448
   248G11  C06216458   0.661   7.053   7.437
   248G11  C06T16459   1.229   6.913   7.157
   248G11  C06A16460   0.914   7.046   7.310
   248G11  C06Z16461   1.185   7.131   7.070
   248G11  C06Q16462   1.017   7.352   7.045
   248G11  C06816463   0.826   7.153   7.290
   248G11  C06716464   0.697   7.161   7.356
   248G11  C06316465   0.453   7.500   7.299
   248G11  C06C16466   0.368   7.610   7.274
   248G11  C06D16467   0.246   7.632   7.338
   248G11  C06E16468   0.154   7.737   7.315
   248G11  C07Q16469   0.184   7.820   7.215
   248G11  C07P16470   0.311   7.812   7.153
   248G11  C07T16471   0.338   7.898   7.050
   248G11  C07U16472   0.454   7.881   6.972
   248G11  C07V16473   0.478   7.969   6.871
   248G11  C08416474   0.391   8.076   6.849
   248G11  C08C16475   0.273   8.084   6.919
   248G11  C08B16476   0.175   8.176   6.883
   248G11  C08A16477   0.053   8.169   6.945
   248G11  C08916478   0.020   8.094   7.046
   248G11  C08816479  -0.102   8.109   7.114
   248G11  C08716480  -0.133   8.015   7.211
   248G11  C08616481  -0.042   7.915   7.243
   248G11  C08X16482  -0.185   8.218   7.087
   248G11  C08T16483  -0.155   8.297   6.964
   248G11  C08D16484   0.119   8.003   7.084
   248G11  C08U16485  -0.038   8.264   6.903
   248G11  C08V16486  -0.010   8.360   6.809
   248G11  C0CY16487   0.117   8.362   6.743
   248G11  C0CX16488   0.141   8.468   6.662
   248G11  C0CW16489   0.255   8.462   6.590
   248G11  C0CV16490   0.343   8.357   6.614
   248G11  C0D416491   0.321   8.262   6.717
   248G11  C0CU16492   0.461   8.343   6.537
   248G11  C0CT16493   0.484   8.435   6.431
   248G11  C0CS16494   0.393   8.539   6.407
   248G11  C0D616495   0.545   8.247   6.573
   248G11  C0EC16496   0.525   8.154   6.675
   248G11  C07X16497   0.622   8.057   6.702
   248G11  C0DL16498   0.656   8.231   6.492
   248G11  C0DK16499   0.741   8.121   6.513
   248G11  C0DN16500   0.825   8.116   6.406
   248G11  C0D816501   0.688   8.306   6.375
   248G11  C08W16502  -0.106   8.455   6.801
   248G11  C0CQ16503  -0.083   8.569   6.718
   248G11  C09316504   0.202   8.265   6.780
   248G11  C09216505   0.411   8.166   6.745
   248G11  C08516506   0.243   7.995   7.019
   248G11  C07S16507   0.085   7.915   7.182
   248G11  C06F16508   0.027   7.736   7.368
   248G11  C07O16509   0.403   7.704   7.181
   248G11  C07N16510   0.520   7.692   7.111
   248G11  C05D16511   0.224   7.546   7.440
   248G11  C05C16512   0.104   7.555   7.504
   248G11  C05N16513   0.092   7.438   7.576
   248G11  C05M16514   0.319   7.138   7.549
   248G11  C05I16515   0.533   7.045   7.490
   248G11  C06116516   0.710   6.826   7.516
   248G11  C02Q16517   0.739   6.593   7.566
   248G11  C02O16518   0.575   6.350   7.611
   248G11  C03Q16519   0.415   6.675   7.636
   248G11  C03O16520   0.178   6.700   7.642
   248G11  C03L16521  -0.079   6.465   7.694
   248G11  C02S16522   0.269   6.339   7.649
   248G11  C02T16523   0.147   6.097   7.658
   248G11  C03K16524  -0.152   6.334   7.691
   248G11  C03I16525   0.082   5.977   7.676
   248G11  C03G16526  -0.045   5.732   7.728
   248G11  H00D16527  -0.092   5.637   7.751
   248G11  C03J16528  -0.272   6.079   7.722
   248G11  C03W16529  -0.552   6.045   7.716
   248G11  C04I16530  -0.588   6.270   7.696
   248G11  C04K16531  -0.733   6.512   7.685
   248G11  C04N16532  -0.789   6.638   7.665
   248G11  C04X16533  -0.781   6.884   7.647
   248G11  C05016534  -0.766   7.134   7.621
   248G11  C05W16535  -0.490   7.109   7.685
   248G11  C05S16536  -0.580   7.562   7.563
   248G11  C05R16537  -0.318   7.355   7.696
   248G11  C05O16538  -0.039   7.405   7.621
   248G11  C05B16539  -0.003   7.640   7.457
   248G11  C05A16540  -0.360   7.660   7.534
   248G11  C07R16541  -0.073   7.818   7.329
   248G11  C08N16542  -0.259   8.021   7.269
   248G11  C08M16543  -0.328   8.144   7.262
   248G11  C08L16544  -0.436   8.163   7.353
   248G11  C09116545  -0.502   7.683   7.510
   248G11  C09K16546  -0.780   7.915   7.483
   248G11  H00M16547  -0.836   7.834   7.439
   248G11  C08K16548  -0.484   8.048   7.427
   248G11  C09J16549  -0.819   8.052   7.512
   248G11  C09I16550  -0.923   8.143   7.470
   248G11  C09L16551  -1.071   8.133   7.467
   248G11  H00N16552  -1.126   8.042   7.486
   248G11  C09Q16553  -1.131   8.249   7.423
   248G11  H00O16554  -1.238   8.245   7.409
   248G11  O00B16555  -1.070   8.374   7.404
   248G11  C09G16556  -0.937   8.375   7.386
   248G11  C09F16557  -0.898   8.498   7.323
   248G11  O00A16558  -0.992   8.591   7.296
   248G11  C09P16559  -0.983   8.631   7.164
   248G11  H00P16560  -1.074   8.624   7.105
   248G11  C09O16561  -0.859   8.679   7.110
   248G11  C09D16562  -0.741   8.630   7.182
   248G11  C09C16563  -0.599   8.655   7.142
   248G11  C09N16564  -0.542   8.716   7.026
   248G11  C09T16565  -0.609   8.745   6.910
   248G11  C09S16566  -0.747   8.772   6.902
   248G11  C0CP16567  -0.769   8.794   6.767
   248G11  C0CN16568  -0.659   8.787   6.686
   248G11  C0CO16569  -0.685   8.797   6.549
   248G11  H01416570  -0.610   8.798   6.472
   248G11  C0CZ16571  -0.814   8.808   6.503
   248G11  H01516572  -0.839   8.819   6.398
   248G11  C0D016573  -0.924   8.844   6.584
   248G11  C0G516574  -1.058   8.884   6.545
   248G11  H01F16575  -1.081   8.908   6.442
   248G11  C0G416576  -1.160   8.882   6.633
   248G11  H01G16577  -1.260   8.903   6.599
   248G11  O00H16578  -1.148   8.856   6.771
   248G11  C0D216579  -1.012   8.837   6.812
   248G11  C09V16580  -0.986   8.807   6.951
   248G11  H00Q16581  -1.074   8.812   7.012
   248G11  C0D116582  -0.903   8.829   6.728
   248G11  C09R16583  -0.854   8.762   6.991
   248G11  C09H16584  -0.859   8.271   7.438
   248G11  C09E16585  -0.762   8.531   7.288
   248G11  C09B16586  -0.491   8.603   7.206
   248G11  C08Z16587  -0.491   8.295   7.359
   248G11  C08O16588  -0.287   8.245   7.176
   248G11  C09A16589  -0.370   8.617   7.141
   248G11  C08S16590  -0.203   8.415   6.893
   248G11  C09916591  -0.395   8.692   7.030
   248G11  C09U16592  -0.545   8.764   6.775
   248G11  C0BO16593  -0.247   8.922   6.435
   248G11  C0CL16594  -0.181   8.666   6.699
   248G11  C0D316595   0.039   8.567   6.643
   248G11  C0D516596   0.273   8.554   6.483
   248G11  C0BR16597  -0.025   8.826   6.393
   248G11  C0BQ16598  -0.133   8.910   6.363
   248G11  C0BL16599  -0.345   9.063   6.269
   248G11  C0AF16600  -0.332   9.204   6.038
   248G11  C0BH16601   0.014   9.072   6.064
   248G11  C0BG16602   0.130   9.059   5.977
   248G11  C0BD16603   0.026   9.205   5.815
   248G11  C0AG16604  -0.317   9.272   5.926
   248G11  C0AI16605  -0.433   9.385   5.748
   248G11  C0AV16606  -0.453   9.456   5.486
   248G11  C0BB16607  -0.095   9.404   5.539
   248G11  O00C16608  -0.330   9.460   5.269
   248G11  C0BC16609  -0.007   9.389   5.437
   248G11  C0B916610   0.020   9.261   5.687
   248G11  O00E16611   0.318   9.113   5.541
   248G11  C0CA16612   0.424   9.043   5.568
   248G11  O00F16613   0.494   9.011   5.469
   248G11  C0BF16614   0.127   9.121   5.852
   248G11  C0C516615   0.437   8.995   5.703
   248G11  C0C416616   0.553   8.921   5.745
   248G11  H01116617   0.641   8.906   5.684
   248G11  C0C816618   0.234   8.976   6.020
   248G11  C0C216619   0.553   8.862   5.875
   248G11  C0C316620   0.653   8.774   5.920
   248G11  C0DY16621   0.771   8.744   5.852
   248G11  H01616622   0.817   8.787   5.765
   248G11  C0DX16623   0.836   8.639   5.929
   248G11  C0DW16624   0.965   8.583   5.885
   248G11  C0BY16625   0.320   8.800   6.165
   248G11  C0DB16626   0.644   8.694   6.033
   248G11  C0CC16627   0.417   8.626   6.304
   248G11  C0D716628   0.598   8.418   6.343
   248G11  C0DZ16629   0.747   8.598   6.037
   248G11  C0DM16630   0.807   8.237   6.327
   248G11  C0DQ16631   0.989   8.396   6.061
   248G11  C0DV16632   1.034   8.475   5.951
   248G11  C0E016633   1.062   8.643   5.793
   248G11  C0FO16634   1.402   8.628   5.849
   248G11  C0E316635   1.101   8.779   5.784
   248G11  H01716636   1.045   8.865   5.818
   248G11  C0GV16637   1.441   8.756   5.875
   248G11  C0ES16638   1.451   8.528   5.935
   248G11  C0GQ16639   1.720   8.720   6.107
   248G11  C0FJ16640   1.787   8.394   6.274
   248G11  C0ED16641   1.569   8.329   6.113
   248G11  C0ER16642   1.684   7.998   6.100
   248G11  C0EP16643   1.496   7.896   6.200
   248G11  C0E616644   1.328   8.225   6.107
   248G11  C0DE16645   1.077   8.085   6.248
   248G11  C0EA16646   1.316   7.805   6.360
   248G11  C0DF16647   1.006   7.979   6.306
   248G11  C08016648   1.082   7.776   6.596
   248G11  C0DO16649   0.909   8.010   6.406
   248G11  C0DJ16650   0.718   8.027   6.616
   248G11  C07K16651   0.892   7.745   6.782
   248G11  C07W16652   0.597   7.957   6.792
   248G11  C08316653   0.545   7.779   7.003
   248G11  C07J16654   0.868   7.659   6.894
   248G11  C06O16655   0.803   7.464   7.093
   248G11  C06M16656   0.604   7.587   7.135
   258G11  C07116657   3.151   9.333   9.610
   258G11  C07L16658   3.122   9.194   9.591
   258G11  C07M16659   3.034   9.149   9.494
   258G11  C07Y16660   3.007   9.013   9.476
   258G11  C08116661   3.071   8.914   9.554
   258G11  C08216662   3.031   8.776   9.536
   258G11  C0DI16663   3.060   8.655   9.621
   258G11  C0DH16664   3.153   8.634   9.727
   258G11  C0DG16665   3.127   8.507   9.793
   258G11  C0E916666   3.217   8.409   9.833
   258G11  C0E816667   3.156   8.281   9.782
   258G11  C0E716668   3.213   8.145   9.781
   258G11  C0EB16669   3.341   8.116   9.848
   258G11  C0EF16670   3.426   7.996   9.841
   258G11  C0EE16671   3.439   7.910   9.724
   258G11  C0FD16672   3.566   7.882   9.669
   258G11  C0FE16673   3.691   7.942   9.714
   258G11  H01B16674   3.693   8.007   9.801
   258G11  C0FF16675   3.810   7.913   9.648
   258G11  H01A16676   3.899   7.970   9.669
   258G11  C0FG16677   3.806   7.832   9.538
   258G11  H01816678   3.901   7.823   9.488
   258G11  C0FH16679   3.689   7.776   9.491
   258G11  C0FI16680   3.675   7.696   9.372
   258G11  H01916681   3.761   7.690   9.307
   258G11  O00K16682   3.563   7.640   9.320
   258G11  C0FL16683   3.455   7.640   9.404
   258G11  C0FK16684   3.451   7.725   9.513
   258G11  C0FM16685   3.331   7.748   9.585
   258G11  C0FN16686   3.218   7.672   9.547
   258G11  C0FP16687   3.230   7.583   9.438
   258G11  C0GO16688   3.127   7.499   9.394
   258G11  C0GN16689   3.117   7.446   9.264
   258G11  C0GR16690   3.232   7.449   9.187
   258G11  C0GS16691   3.239   7.396   9.054
   258G11  H01Q16692   3.333   7.395   9.001
   258G11  C0GT16693   3.121   7.351   9.001
   258G11  H01O16694   3.120   7.315   8.899
   258G11  C0GU16695   3.002   7.357   9.076
   258G11  H01P16696   2.914   7.330   9.021
   258G11  O00L16697   3.347   7.505   9.233
   258G11  C0GM16698   3.001   7.394   9.212
   258G11  C0GL16699   2.881   7.413   9.296
   258G11  H01R16700   2.786   7.401   9.246
   258G11  C0GK16701   2.887   7.465   9.425
   258G11  C0GP16702   2.789   7.518   9.516
   258G11  C0E216703   2.856   7.580   9.622
   258G11  C0E116704   2.786   7.700   9.660
   258G11  C0DU16705   2.840   7.828   9.658
   258G11  C0DT16706   2.967   7.872   9.695
   258G11  C0E416707   3.081   7.799   9.688
   258G11  C0E516708   3.186   7.885   9.716
   258G11  C0DS16709   3.006   8.004   9.705
   258G11  C0DR16710   2.913   8.092   9.646
   258G11  C0DD16711   2.934   8.230   9.622
   258G11  C0DC16712   2.832   8.264   9.529
   258G11  C0DP16713   2.739   8.159   9.491
   258G11  C0DA16714   2.630   8.160   9.390
   258G11  C0D916715   2.572   8.267   9.305
   258G11  C0CR16716   2.462   8.240   9.216
   258G11  C0C016717   2.403   8.116   9.205
   258G11  C0BZ16718   2.298   8.075   9.120
   258G11  C0C116719   2.252   7.950   9.114
   258G11  C0C716720   2.154   7.916   9.017
   258G11  C0C616721   2.104   7.782   9.009
   258G11  C0C916722   2.011   7.738   8.915
   258G11  C0B816723   1.967   7.607   8.908
   258G11  C0B716724   1.866   7.567   8.816
   258G11  C0B616725   1.814   7.438   8.777
   258G11  C0B516726   1.888   7.317   8.796
   258G11  H00Z16727   1.964   7.296   8.869
   258G11  C0B416728   1.848   7.232   8.685
   258G11  H01016729   1.904   7.147   8.648
   258G11  C0B316730   1.745   7.299   8.605
   258G11  C0AP16731   1.715   7.327   8.465
   258G11  C0AQ16732   1.684   7.470   8.469
   258G11  C0AR16733   1.702   7.545   8.352
   258G11  C0AS16734   1.705   7.680   8.377
   258G11  C0AT16735   1.732   7.729   8.507
   258G11  C0BA16736   1.743   7.644   8.615
   258G11  C0AU16737   1.769   7.862   8.522
   258G11  C0BE16738   1.839   7.900   8.634
   258G11  C0BI16739   1.894   8.028   8.639
   258G11  C0BJ16740   1.872   8.116   8.532
   258G11  C0BK16741   1.918   8.244   8.538
   258G11  C0BW16742   1.981   8.291   8.658
   258G11  C0BV16743   2.018   8.197   8.755
   258G11  C0BU16744   2.107   8.238   8.847
   258G11  C0BX16745   2.152   8.142   8.939
   258G11  C0BT16746   2.145   8.370   8.857
   258G11  C0CD16747   2.243   8.397   8.954
   258G11  C0CB16748   2.307   8.303   9.035
   258G11  C0CE16749   2.293   8.529   8.954
   258G11  C0CK16750   2.235   8.625   8.874
   258G11  C0BS16751   2.137   8.595   8.778
   258G11  C0CJ16752   2.088   8.697   8.689
   258G11  C0BP16753   2.012   8.649   8.579
   258G11  C0CI16754   1.966   8.738   8.478
   258G11  C0CH16755   1.922   8.684   8.354
   258G11  H01216756   1.879   8.755   8.284
   258G11  C0BN16757   1.921   8.546   8.330
   258G11  C0CG16758   1.880   8.494   8.208
   258G11  C0CF16759   1.871   8.574   8.086
   258G11  H01316760   1.900   8.679   8.088
   258G11  O00G16761   1.838   8.516   7.963
   258G11  C0AA16762   1.833   8.381   7.959
   258G11  C0A916763   1.833   8.324   7.830
   258G11  H00U16764   1.826   8.390   7.744
   258G11  C0A816765   1.838   8.187   7.810
   258G11  H00V16766   1.829   8.145   7.712
   258G11  C0A716767   1.846   8.100   7.922
   258G11  C0A616768   1.832   8.157   8.053
   258G11  C0A516769   1.821   8.082   8.168
   258G11  C0A416770   1.780   7.945   8.160
   258G11  C0A316771   1.785   7.833   8.070
   258G11  C0A216772   1.854   7.837   7.951
   258G11  C0A116773   1.878   7.727   7.871
   258G11  C0A016774   1.876   7.581   7.886
   258G11  C09Z16775   1.944   7.516   7.783
   258G11  C09Y16776   1.967   7.378   7.793
   258G11  H00Y16777   2.018   7.332   7.710
   258G11  C09X16778   1.921   7.305   7.906
   258G11  C09W16779   1.950   7.167   7.913
   258G11  H00R16780   2.003   7.123   7.830
   258G11  C0AX16781   1.918   7.087   8.016
   258G11  H00S16782   1.938   6.981   8.007
   258G11  C0AW16783   1.853   7.151   8.120
   258G11  H00T16784   1.816   7.087   8.199
   258G11  C0AN16785   1.828   7.292   8.125
   258G11  C0AO16786   1.776   7.355   8.238
   258G11  C0AM16787   1.861   7.372   8.013
   258G11  C0B216788   1.995   7.572   7.663
   258G11  O00D16789   2.053   7.507   7.579
   258G11  C0B116790   1.973   7.712   7.641
   258G11  H00W16791   1.997   7.754   7.544
   258G11  C0AL16792   1.835   7.509   8.003
   258G11  C0AK16793   1.776   7.565   8.122
   258G11  C0B016794   1.927   7.786   7.751
   258G11  C0AZ16795   1.940   7.930   7.759
   258G11  H00X16796   1.988   7.994   7.686
   258G11  C0AJ16797   1.760   7.711   8.143
   258G11  C0AH16798   1.728   7.901   8.281
   258G11  C0AE16799   1.830   8.142   8.295
   258G11  C0AD16800   1.871   8.273   8.304
   258G11  C0AY16801   1.876   7.963   7.883
   258G11  C0AB16802   1.840   8.293   8.069
   258G11  C0AC16803   1.864   8.354   8.193
   258G11  C0BM16804   1.945   8.461   8.441
   258G11  C0CM16805   1.951   8.870   8.521
   258G11  C09M16806   2.047   8.924   8.614
   258G11  C09816807   2.092   9.059   8.589
   258G11  C08R16808   2.184   9.150   8.651
   258G11  C08Q16809   2.210   9.276   8.583
   258G11  C08P16810   2.248   9.413   8.621
   258G11  C08Y16811   2.195   9.514   8.536
   258G11  C09716812   2.085   9.482   8.455
   258G11  C09616813   1.981   9.575   8.473
   258G11  C09016814   2.048   9.695   8.519
   258G11  C09516815   1.989   9.815   8.558
   258G11  C09416816   2.060   9.934   8.586
   258G11  C08J16817   2.189   9.939   8.667
   258G11  C08I16818   2.173  10.042   8.763
   258G11  C08H16819   2.258  10.008   8.879
   258G11  C08G16820   2.315   9.874   8.852
   258G11  C08F16821   2.413   9.782   8.911
   258G11  C08E16822   2.520   9.825   8.996
   258G11  C05916823   2.550   9.962   9.023
   258G11  C05816824   2.661   9.994   9.104
   258G11  C05716825   2.695  10.123   9.152
   258G11  C05616826   2.611  10.225   9.114
   258G11  C05516827   2.515  10.209   9.017
   258G11  C05416828   2.420  10.315   9.027
   258G11  C05316829   2.461  10.397   9.142
   258G11  C05216830   2.393  10.496   9.216
   258G11  C05116831   2.255  10.526   9.185
   258G11  C05U16832   2.168  10.459   9.089
   258G11  C05T16833   2.183  10.338   9.011
   258G11  C06K16834   2.083  10.354   8.909
   258G11  H00J16835   2.092  10.290   8.822
   258G11  C06L16836   1.990  10.459   8.945
   258G11  H00I16837   1.896  10.492   8.902
   258G11  C05V16838   2.040  10.519   9.059
   258G11  C06J16839   1.979  10.616   9.136
   258G11  H00K16840   1.877  10.647   9.120
   258G11  C05X16841   2.056  10.684   9.229
   258G11  C06I16842   2.007  10.798   9.298
   258G11  H00L16843   1.921  10.851   9.260
   258G11  C04Z16844   2.072  10.848   9.410
   258G11  C06H16845   2.010  10.957   9.482
   258G11  H00H16846   1.918  10.995   9.441
   258G11  C04Y16847   2.074  10.998   9.604
   258G11  C06G16848   2.009  11.100   9.679
   258G11  O00916849   1.912  11.165   9.642
   258G11  O00816850   2.074  11.140   9.791
   258G11  C04P16851   2.191  11.087   9.833
   258G11  C04J16852   2.249  11.117   9.961
   258G11  C04Q16853   2.198  11.192  10.071
   258G11  H00E16854   2.095  11.220  10.055
   258G11  C04M16855   2.260  11.218  10.192
   258G11  C04R16856   2.206  11.297  10.300
   258G11  H00F16857   2.114  11.350  10.279
   258G11  C04S16858   2.284  11.319  10.404
   258G11  H00G16859   2.249  11.391  10.477
   258G11  O00716860   2.394  11.241  10.435
   258G11  C03V16861   2.453  11.169  10.335
   258G11  C03U16862   2.566  11.097  10.362
   258G11  O00616863   2.623  11.114  10.482
   258G11  C03F16864   2.737  11.052  10.514
   258G11  C03E16865   2.804  10.969  10.423
   258G11  C03D16866   2.752  10.958  10.293
   258G11  C03C16867   2.815  10.875  10.198
   258G11  C03B16868   2.931  10.813  10.246
   258G11  C03A16869   2.988  10.718  10.164
   258G11  C03916870   2.934  10.684  10.034
   258G11  C03816871   3.025  10.577   9.991
   258G11  C03716872   3.123  10.559  10.093
   258G11  C03616873   3.225  10.475  10.074
   258G11  C02R16874   3.325  10.445  10.161
   258G11  C03516875   3.388  10.334  10.099
   258G11  C03R16876   3.343  10.309   9.968
   258G11  C03S16877   3.322  10.172   9.933
   258G11  C04916878   3.226  10.148   9.836
   258G11  C04816879   3.143  10.259   9.800
   258G11  C03P16880   3.130  10.387   9.871
   258G11  C04716881   3.069  10.229   9.680
   258G11  C04616882   2.987  10.318   9.614
   258G11  C04516883   2.932  10.442   9.655
   258G11  C03T16884   2.944  10.518   9.768
   258G11  C04416885   2.845  10.623   9.762
   258G11  C04316886   2.807  10.626   9.625
   258G11  C04216887   2.680  10.688   9.619
   258G11  C04116888   2.672  10.757   9.752
   258G11  C04016889   2.567  10.837   9.789
   258G11  C03Z16890   2.554  10.903   9.916
   258G11  C04H16891   2.438  10.978   9.902
   258G11  C04G16892   2.374  10.944   9.787
   258G11  C03N16893   2.628  10.926  10.040
   258G11  C03Y16894   2.563  11.005  10.140
   258G11  C03X16895   2.441  11.073  10.113
   258G11  C04F16896   2.441  10.851   9.717
   258G11  C04E16897   2.387  10.804   9.596
   258G11  C04O16898   2.260  10.848   9.562
   258G11  C04D16899   2.453  10.719   9.509
   258G11  C04V16900   2.375  10.662   9.401
   258G11  C04W16901   2.242  10.688   9.373
   258G11  C04C16902   2.578  10.664   9.513
   258G11  C04L16903   2.583  10.579   9.392
   258G11  C04U16904   2.688  10.486   9.368
   258G11  C05Q16905   2.671  10.369   9.284
   258G11  C05P16906   2.771  10.276   9.314
   258G11  C04T16907   2.843  10.313   9.429
   258G11  C04B16908   2.797  10.445   9.454
   258G11  C03M16909   2.780  10.725   9.842
   258G11  C04A16910   2.844  10.506   9.570
   258G11  C05H16911   2.933  10.243   9.510
   258G11  C05G16912   2.989  10.111   9.501
   258G11  C05F16913   2.986  10.026   9.385
   258G11  C05E16914   3.003   9.883   9.404
   258G11  C05L16915   3.061   9.801   9.509
   258G11  C05K16916   3.134   9.844   9.623
   258G11  C05J16917   3.141   9.979   9.675
   258G11  C06616918   3.195   9.742   9.700
   258G11  C06516919   3.186   9.604   9.670
   258G11  C06416920   3.102   9.566   9.561
   258G11  C06N16921   3.256   9.509   9.746
   258G11  C06916922   3.337   9.544   9.854
   258G11  C06P16923   3.391   9.446   9.929
   258G11  C06R16924   3.467   9.481  10.041
   258G11  C06B16925   3.479   9.616  10.074
   258G11  C06S16926   3.551   9.648  10.188
   258G11  C02G16927   3.559   9.778  10.234
   258G11  C02F16928   3.623   9.811  10.354
   258G11  C02716929   3.686   9.711  10.428
   258G11  C02616930   3.751   9.744  10.548
   258G11  C00E16931   3.803   9.645  10.627
   258G11  C00D16932   3.827   9.675  10.756
   258G11  C00C16933   3.864   9.569  10.839
   258G11  C00B16934   3.872   9.436  10.809
   258G11  C01516935   3.829   9.404  10.677
   258G11  C07F16936   3.822   9.275  10.636
   258G11  C07E16937   3.769   9.247  10.513
   258G11  C06W16938   3.721   9.348  10.430
   258G11  C06V16939   3.728   9.480  10.467
   258G11  C06X16940   3.656   9.311  10.312
   258G11  C07B16941   3.647   9.176  10.274
   258G11  C07C16942   3.694   9.076  10.358
   258G11  C0FU16943   3.680   8.945  10.322
   258G11  C0F716944   3.733   8.843  10.397
   258G11  C0F616945   3.719   8.706  10.365
   258G11  C0F816946   3.775   8.607  10.443
   258G11  C0F916947   3.758   8.477  10.405
   258G11  C0FA16948   3.820   8.376  10.479
   258G11  C0FZ16949   3.893   8.411  10.592
   258G11  C0G016950   3.959   8.309  10.663
   258G11  C0GD16951   3.963   8.176  10.626
   258G11  C0FC16952   3.886   8.141  10.506
   258G11  C0GH16953   3.877   8.007  10.471
   258G11  C0EY16954   3.792   7.972  10.361
   258G11  C0EX16955   3.783   7.839  10.315
   258G11  C0EW16956   3.709   7.813  10.201
   258G11  C0FR16957   3.693   7.682  10.154
   258G11  H01D16958   3.617   7.662  10.081
   258G11  C0FS16959   3.743   7.573  10.224
   258G11  H01C16960   3.695   7.477  10.214
   258G11  C0GJ16961   3.839   7.604  10.324
   258G11  H01N16962   3.876   7.521  10.381
   258G11  C0EV16963   3.644   7.916  10.132
   258G11  C0FT16964   3.588   7.893  10.003
   258G11  H01E16965   3.602   7.803   9.946
   258G11  C0EU16966   3.640   8.042  10.188
   258G11  C0ET16967   3.561   8.143  10.137
   258G11  C0EI16968   3.570   8.275  10.162
   258G11  C0F116969   3.660   8.308  10.268
   258G11  C0F016970   3.726   8.205  10.339
   258G11  C0EH16971   3.496   8.370  10.086
   258G11  C0EG16972   3.405   8.339   9.982
   258G11  C0EJ16973   3.526   8.504  10.116
   258G11  C0F316974   3.614   8.538  10.221
   258G11  C0EK16975   3.465   8.604  10.043
   258G11  C0EL16976   3.374   8.576   9.938
   258G11  C0EM16977   3.341   8.697   9.860
   258G11  C0EN16978   3.383   8.824   9.892
   258G11  C07I16979   3.323   8.922   9.815
   258G11  C07416980   3.334   9.054   9.842
   258G11  C07316981   3.270   9.143   9.763
   258G11  C07216982   3.291   9.278   9.794
   258G11  C07516983   3.414   9.084   9.950
   258G11  C07616984   3.480   8.982  10.022
   258G11  C07816985   3.557   9.010  10.132
   258G11  C07G16986   3.428   9.216   9.982
   258G11  C07016987   3.518   9.248  10.085
   258G11  C07Z16988   3.236   8.862   9.725
   258G11  C07716989   3.463   8.847   9.998
   258G11  C0EO16990   3.497   8.738  10.077
   258G11  C0F416991   3.577   8.770  10.186
   258G11  C0EQ16992   3.484   8.110  10.025
   258G11  C0FQ16993   3.853   7.739  10.378
   258G11  C0GI16994   3.937   7.774  10.487
   258G11  H01L16995   3.998   7.693  10.524
   258G11  C0EZ16996   3.713   8.073  10.301
   258G11  C0GG16997   3.946   7.905  10.541
   258G11  C0GF16998   4.021   7.941  10.653
   258G11  H01M16999   4.077   7.865  10.706
   258G11  C0GE17000   4.037   8.073  10.691
   258G11  H01K17001   4.108   8.101  10.769
   258G11  O00J17002   4.032   8.344  10.781
   258G11  C0GA17003   4.046   8.478  10.811
   258G11  C0G917004   4.103   8.508  10.934
   258G11  H01H17005   4.155   8.425  10.980
   258G11  C0G817006   4.100   8.640  10.993
   258G11  C0G717007   4.177   8.678  11.109
   258G11  H01I17008   4.264   8.623  11.144
   258G11  O00I17009   4.130   8.791  11.173
   258G11  C0G617010   4.092   8.897  11.091
   258G11  H01J17011   4.110   8.994  11.135
   258G11  C02D17012   4.028   8.869  10.968
   258G11  C02C17013   3.967   8.968  10.891
   258G11  C01717014   3.947   9.101  10.941
   258G11  C01617015   3.906   9.204  10.857
   258G11  O00117016   3.968   9.135  11.071
   258G11  C01817017   3.960   9.263  11.123
   258G11  C00917018   3.930   9.368  11.037
   258G11  C00817019   3.932   9.507  11.070
   258G11  C00717020   3.927   9.586  11.193
   258G11  C00617021   3.910   9.521  11.318
   258G11  C00517022   3.873   9.584  11.439
   258G11  C00417023   3.831   9.721  11.461
   258G11  C00317024   3.798   9.833  11.369
   258G11  C00217025   3.737   9.954  11.422
   258G11  C00P17026   3.703  10.064  11.339
   258G11  C00O17027   3.645  10.181  11.393
   258G11  C00N17028   3.604  10.288  11.313
   258G11  C01017029   3.529  10.392  11.364
   258G11  C01117030   3.453  10.470  11.282
   258G11  C01Q17031   3.352  10.554  11.335
   258G11  C01U17032   3.327  10.562  11.473
   258G11  C01217033   3.420  10.493  11.550
   258G11  H00017034   3.415  10.496  11.658
   258G11  C01V17035   3.220  10.643  11.509
   258G11  H00717036   3.203  10.658  11.614
   258G11  O00517037   3.135  10.709  11.420
   258G11  C01W17038   3.158  10.692  11.289
   258G11  C03117039   3.071  10.760  11.203
   258G11  C03217040   3.067  10.723  11.067
   258G11  H00A17041   2.989  10.759  11.001
   258G11  C03317042   3.172  10.646  11.016
   258G11  H00B17043   3.173  10.612  10.914
   258G11  C01O17044   3.281  10.606  11.101
   258G11  C01N17045   3.398  10.552  11.057
   258G11  C01M17046   3.445  10.560  10.914
   258G11  C01L17047   3.402  10.613  10.781
   258G11  C01K17048   3.475  10.542  10.688
   258G11  C01Y17049   3.432  10.530  10.550
   258G11  C02I17050   3.327  10.605  10.503
   258G11  C02N17051   3.284  10.586  10.369
   258G11  C02M17052   3.168  10.667  10.330
   258G11  C02L17053   3.109  10.759  10.417
   258G11  C02K17054   3.165  10.781  10.545
   258G11  C02U17055   3.098  10.872  10.628
   258G11  C02V17056   2.973  10.933  10.587
   258G11  C03H17057   2.903  11.013  10.684
   258G11  H00C17058   2.924  11.030  10.789
   258G11  C02W17059   3.153  10.904  10.753
   258G11  C02X17060   3.268  10.837  10.787
   258G11  C02Y17061   3.312  10.886  10.908
   258G11  H00817062   3.403  10.852  10.955
   258G11  C02Z17063   3.204  10.978  10.953
   258G11  O00417064   3.178  11.021  11.065
   258G11  O00317065   3.117  10.988  10.855
   258G11  C02J17066   3.274  10.703  10.594
   258G11  C01Z17067   3.485  10.417  10.488
   258G11  C02017068   3.571  10.327  10.557
   258G11  C01I17069   3.611  10.347  10.689
   258G11  C01H17070   3.665  10.247  10.769
   258G11  C00K17071   3.671  10.264  10.906
   258G11  C01S17072   3.606  10.375  10.964
   258G11  C01417073   3.570  10.379  11.095
   258G11  C00J17074   3.708  10.155  10.984
   258G11  C00I17075   3.751  10.041  10.925
   258G11  C00H17076   3.757  10.026  10.785
   258G11  C00G17077   3.768   9.903  10.728
   258G11  C00S17078   3.785   9.934  11.006
   258G11  C00T17079   3.826   9.822  10.941
   258G11  C00U17080   3.872   9.720  11.026
   258G11  C00R17081   3.772   9.941  11.145
   258G11  C00L17082   3.684  10.165  11.121
   258G11  C02817083   3.703  10.129  10.708
   258G11  C02317084   3.667  10.102  10.572
   258G11  C02417085   3.684   9.974  10.518
   258G11  C02117086   3.597  10.201  10.503
   258G11  C02217087   3.555  10.169  10.376
   258G11  C02H17088   3.568  10.039  10.324
   258G11  C03017089   3.508  10.006  10.203
   258G11  C03417090   3.443  10.104  10.129
   258G11  C02P17091   3.479  10.266  10.306
   258G11  C02B17092   3.445  10.392  10.358
   258G11  C01J17093   3.566  10.461  10.747
   258G11  C01X17094   3.316  10.716  10.734
   258G11  C01T17095   3.548  10.473  10.882
   258G11  H00917096   3.002  10.833  11.241
   258G11  C01P17097   3.264  10.618  11.241
   258G11  C01R17098   3.476  10.469  11.142
   258G11  C00Z17099   3.515  10.400  11.501
   258G11  O00017100   3.579  10.311  11.585
   258G11  C00M17101   3.623  10.276  11.174
   258G11  C00Y17102   3.617  10.193  11.530
   258G11  C01317103   3.644  10.085  11.607
   258G11  H00117104   3.630  10.098  11.713
   258G11  C00Q17105   3.719  10.056  11.201
   258G11  C00117106   3.701   9.964  11.559
   258G11  C00017107   3.724   9.853  11.634
   258G11  H00617108   3.698   9.869  11.737
   258G11  C00W17109   3.816   9.833  11.228
   258G11  C01G17110   3.793   9.742  11.592
   258G11  H00517111   3.812   9.677  11.677
   258G11  C01C17112   3.873   9.484  11.539
   258G11  H00217113   3.863   9.486  11.646
   258G11  C01B17114   3.933   9.365  11.480
   258G11  C01D17115   3.979   9.249  11.547
   258G11  H00317116   3.991   9.222  11.651
   258G11  C01E17117   4.030   9.157  11.461
   258G11  H00417118   4.077   9.066  11.497
   258G11  O00217119   4.030   9.166  11.324
   258G11  C01A17120   3.950   9.386  11.340
   258G11  C00V17121   3.872   9.719  11.163
   258G11  C01917122   3.986   9.279  11.260
   258G11  C02E17123   3.912   8.943  10.767
   258G11  C0FX17124   3.918   8.809  10.720
   258G11  C0FW17125   3.854   8.777  10.597
   258G11  C0GB17126   3.979   8.710  10.794
   258G11  C0G317127   3.862   9.045  10.682
   258G11  C07H17128   3.810   9.008  10.560
   258G11  C0GC17129   4.035   8.741  10.917
   258G11  C0G217130   3.973   8.577  10.750
   258G11  C0G117131   3.902   8.545  10.635
   258G11  C0FB17132   3.816   8.244  10.440
   258G11  C0F217133   3.679   8.443  10.298
   258G11  C0FY17134   3.844   8.645  10.556
   258G11  C0F517135   3.636   8.671  10.258
   258G11  C0FV17136   3.798   8.873  10.517
   258G11  C07917137   3.602   8.905  10.215
   258G11  C07A17138   3.579   9.146  10.160
   258G11  C06Y17139   3.602   9.415  10.231
   258G11  C07D17140   3.760   9.110  10.478
   258G11  C01F17141   3.862   9.174  10.724
   258G11  C00A17142   3.906   9.335  10.901
   258G11  C00X17143   3.908   9.602  10.967
   258G11  C00F17144   3.810   9.804  10.805
   258G11  C02917145   3.790   9.510  10.589
   258G11  C02517146   3.747   9.874  10.595
   258G11  C06U17147   3.678   9.581  10.381
   258G11  C02A17148   3.627   9.939  10.398
   258G11  C05Y17149   3.503   9.878  10.158
   258G11  C05Z17150   3.433   9.846  10.042
   258G11  C06017151   3.360   9.943   9.971
   258G11  C06217152   3.286   9.912   9.855
   258G11  C06T17153   3.611   9.546  10.265
   258G11  C06A17154   3.423   9.716   9.997
   258G11  C06Z17155   3.532   9.384  10.117
   258G11  C06Q17156   3.372   9.314   9.898
   258G11  C06817157   3.349   9.683   9.882
   258G11  C06717158   3.277   9.779   9.811
   258G11  C06317159   3.039   9.662   9.482
   258G11  C06C17160   2.946   9.614   9.392
   258G11  C06D17161   2.876   9.692   9.305
   258G11  C06E17162   2.771   9.663   9.220
   258G11  C07Q17163   2.741   9.530   9.208
   258G11  C07P17164   2.821   9.436   9.279
   258G11  C07T17165   2.791   9.302   9.263
   258G11  C07U17166   2.864   9.207   9.335
   258G11  C07V17167   2.836   9.071   9.316
   258G11  C08417168   2.728   9.036   9.242
   258G11  C08C17169   2.660   9.137   9.170
   258G11  C08B17170   2.561   9.100   9.083
   258G11  C08A17171   2.491   9.194   9.016
   258G11  C08917172   2.516   9.325   9.018
   258G11  C08817173   2.441   9.414   8.941
   258G11  C08717174   2.471   9.551   8.954
   258G11  C08617175   2.567   9.589   9.046
   258G11  C08X17176   2.342   9.371   8.847
   258G11  C08T17177   2.320   9.229   8.846
   258G11  C08D17178   2.617   9.364   9.106
   258G11  C08U17179   2.389   9.153   8.936
   258G11  C08V17180   2.353   9.015   8.927
   258G11  C0CY17181   2.428   8.917   8.989
   258G11  C0CX17182   2.386   8.787   8.971
   258G11  C0CW17183   2.449   8.689   9.040
   258G11  C0CV17184   2.545   8.728   9.134
   258G11  C0D417185   2.590   8.865   9.143
   258G11  C0CU17186   2.614   8.629   9.200
   258G11  C0CT17187   2.568   8.499   9.204
   258G11  C0CS17188   2.456   8.464   9.123
   258G11  C0D617189   2.726   8.672   9.268
   258G11  C0EC17190   2.770   8.804   9.280
   258G11  C07X17191   2.871   8.840   9.366
   258G11  C0DL17192   2.782   8.575   9.348
   258G11  C0DK17193   2.887   8.609   9.434
   258G11  C0DN17194   2.912   8.502   9.508
   258G11  C0D817195   2.731   8.448   9.372
   258G11  C08W17196   2.259   9.001   8.833
   258G11  C0CQ17197   2.213   8.860   8.808
   258G11  C09317198   2.527   8.964   9.071
   258G11  C09217199   2.696   8.899   9.220
   258G11  C08517200   2.689   9.269   9.185
   258G11  C07S17201   2.639   9.496   9.118
   258G11  C06F17202   2.708   9.759   9.141
   258G11  C07O17203   2.924   9.477   9.369
   258G11  C07N17204   2.994   9.383   9.441
   258G11  C05D17205   2.920   9.824   9.305
   258G11  C05C17206   2.852   9.923   9.228
   258G11  C05N17207   2.888  10.044   9.279
   258G11  C05M17208   3.070  10.098   9.618
   258G11  C05I17209   3.216  10.017   9.788
   258G11  C06117210   3.376  10.073  10.009
   258G11  C02Q17211   3.438  10.236  10.180
   258G11  C02O17212   3.352  10.479  10.299
   258G11  C03Q17213   3.228  10.389   9.969
   258G11  C03O17214   3.029  10.492   9.870
   258G11  C03L17215   2.813  10.755   9.979
   258G11  C02S17216   3.103  10.642  10.201
   258G11  C02T17217   2.988  10.829  10.378
   258G11  C03K17218   2.752  10.855  10.067
   258G11  C03I17219   2.918  10.908  10.465
   258G11  C03G17220   2.780  11.071  10.646
   258G11  H00D17221   2.724  11.131  10.717
   258G11  C03J17222   2.631  11.022  10.263
   258G11  C03W17223   2.385  11.156  10.215
   258G11  C04I17224   2.377  11.065   9.995
   258G11  C04K17225   2.249  10.994   9.755
   258G11  C04N17226   2.195  10.948   9.634
   258G11  C04X17227   2.190  10.791   9.452
   258G11  C05017228   2.186  10.631   9.258
   258G11  C05W17229   2.455  10.572   9.322
   258G11  C05S17230   2.298  10.251   9.003
   258G11  C05R17231   2.585  10.338   9.180
   258G11  C05O17232   2.790  10.146   9.254
   258G11  C05B17233   2.739   9.892   9.150
   258G11  C05A17234   2.459  10.079   9.004
   258G11  C07R17235   2.598   9.724   9.062
   258G11  C08N17236   2.394   9.646   8.882
   258G11  C08M17237   2.313   9.601   8.774
   258G11  C08L17238   2.243   9.692   8.698
   258G11  C09117239   2.322  10.108   8.967
   258G11  C09K17240   2.032  10.062   8.776
   258G11  H00M17241   1.979  10.098   8.863
   258G11  C08K17242   2.248   9.829   8.734
   258G11  C09J17243   1.974  10.021   8.652
   258G11  C09I17244   1.843   9.972   8.624
   258G11  C09L17245   1.719  10.040   8.634
   258G11  H00N17246   1.710  10.141   8.671
   258G11  C09Q17247   1.612   9.972   8.598
   258G11  H00O17248   1.515  10.019   8.603
   258G11  O00B17249   1.619   9.837   8.550
   258G11  C09G17250   1.737   9.765   8.543
   258G11  C09F17251   1.730   9.631   8.500
   258G11  O00A17252   1.602   9.589   8.507
   258G11  C09P17253   1.568   9.483   8.430
   258G11  H00P17254   1.470   9.491   8.385
   258G11  C09O17255   1.664   9.375   8.422
   258G11  C09D17256   1.802   9.405   8.424
   258G11  C09C17257   1.918   9.313   8.420
   258G11  C09N17258   1.919   9.169   8.435
   258G11  C09T17259   1.806   9.088   8.473
   258G11  C09S17260   1.673   9.120   8.437
   258G11  C0CP17261   1.614   8.993   8.432
   258G11  C0CN17262   1.696   8.884   8.462
   258G11  C0CO17263   1.649   8.757   8.472
   258G11  H01417264   1.706   8.674   8.510
   258G11  C0CZ17265   1.515   8.746   8.431
   258G11  H01517266   1.483   8.643   8.422
   258G11  C0D017267   1.425   8.851   8.397
   258G11  C0G517268   1.281   8.842   8.370
   258G11  H01F17269   1.240   8.742   8.364
   258G11  C0G417270   1.208   8.954   8.342
   258G11  H01G17271   1.102   8.959   8.320
   258G11  O00H17272   1.261   9.082   8.347
   258G11  C0D217273   1.395   9.096   8.370
   258G11  C09V17274   1.465   9.221   8.374
   258G11  H00Q17275   1.396   9.299   8.344
   258G11  C0D117276   1.477   8.981   8.398
   258G11  C09R17277   1.606   9.242   8.407
   258G11  C09H17278   1.853   9.841   8.567
   258G11  C09E17279   1.837   9.546   8.457
   258G11  C09B17280   2.050   9.351   8.434
   258G11  C08Z17281   2.162   9.637   8.590
   258G11  C08O17282   2.294   9.460   8.751
   258G11  C09A17283   2.141   9.247   8.456
   258G11  C08S17284   2.238   9.134   8.778
   258G11  C09917285   2.062   9.130   8.468
   258G11  C09U17286   1.827   8.942   8.482
   258G11  C0BO17287   1.992   8.510   8.562
   258G11  C0CL17288   2.120   8.831   8.702
   258G11  C0D317289   2.280   8.761   8.885
   258G11  C0D517290   2.402   8.560   9.033
   258G11  C0BR17291   2.104   8.463   8.768
   258G11  C0BQ17292   2.026   8.424   8.662
   258G11  C0BL17293   1.909   8.328   8.429
   258G11  C0AF17294   1.814   8.069   8.412
   258G11  C0BH17295   1.973   8.067   8.749
   258G11  C0BG17296   2.013   7.970   8.839
   258G11  C0BD17297   1.870   7.803   8.733
   258G11  C0AG17298   1.763   7.949   8.411
   258G11  C0AI17299   1.721   7.762   8.269
   258G11  C0AV17300   1.744   7.487   8.233
   258G11  C0BB17301   1.682   7.521   8.602
   258G11  O00C17302   1.772   7.277   8.350
   258G11  C0BC17303   1.718   7.412   8.684
   258G11  C0B917304   1.821   7.671   8.726
   258G11  O00E17305   2.018   7.517   9.001
   258G11  C0CA17306   2.111   7.546   9.090
   258G11  O00F17307   2.149   7.456   9.167
   258G11  C0BF17308   1.962   7.841   8.833
   258G11  C0C517309   2.143   7.687   9.100
   258G11  C0C417310   2.226   7.721   9.212
   258G11  H01117311   2.259   7.647   9.283
   258G11  C0C817312   2.103   8.008   8.935
   258G11  C0C217313   2.286   7.852   9.209
   258G11  C0C317314   2.385   7.895   9.305
   258G11  C0DY17315   2.441   7.819   9.409
   258G11  H01617316   2.416   7.722   9.449
   258G11  C0DX17317   2.546   7.906   9.455
   258G11  C0DW17318   2.644   7.850   9.536
   258G11  C0BY17319   2.250   8.175   9.036
   258G11  C0DB17320   2.451   8.015   9.293
   258G11  C0CC17321   2.413   8.331   9.122
   258G11  C0D717322   2.622   8.400   9.293
   258G11  C0DZ17323   2.558   8.033   9.380
   258G11  C0DM17324   2.818   8.398   9.475
   258G11  C0DQ17325   2.793   8.053   9.571
   258G11  C0DV17326   2.752   7.917   9.593
   258G11  C0E017327   2.674   7.710   9.573
   258G11  C0FO17328   2.998   7.575   9.594
   258G11  C0E317329   2.668   7.595   9.483
   258G11  H01717330   2.619   7.600   9.387
   258G11  C0GV17331   3.010   7.501   9.476
   258G11  C0ES17332   3.100   7.669   9.624
   258G11  C0GQ17333   3.344   7.580   9.351
   258G11  C0FJ17334   3.568   7.797   9.559
   258G11  C0ED17335   3.319   7.852   9.678
   258G11  C0ER17336   3.504   7.991   9.954
   258G11  C0EP17337   3.405   8.194   9.953
   258G11  C0E617338   3.142   8.021   9.745
   258G11  C0DE17339   3.031   8.307   9.702
   258G11  C0EA17340   3.333   8.443   9.913
   258G11  C0DF17341   3.024   8.447   9.715
   258G11  C08017342   3.252   8.723   9.752
   258G11  C0DO17343   2.994   8.536   9.614
   258G11  C0DJ17344   2.937   8.747   9.440
   258G11  C07K17345   3.160   8.960   9.650
   258G11  C07W17346   2.908   8.974   9.383
   258G11  C08317347   2.965   9.248   9.424
   258G11  C07J17348   3.185   9.098   9.665
   258G11  C06O17349   3.240   9.371   9.715
   258G11  C06M17350   3.083   9.432   9.538
   268G11  C07117351   4.140   5.878  14.879
   268G11  C07L17352   4.039   5.826  14.963
   268G11  C07M17353   3.938   5.909  15.008
   268G11  C07Y17354   3.831   5.857  15.089
   268G11  C08117355   3.832   5.724  15.138
   268G11  C08217356   3.725   5.682  15.223
   268G11  C0DI17357   3.704   5.551  15.300
   268G11  C0DH17358   3.773   5.430  15.303
   268G11  C0DG17359   3.720   5.334  15.394
   268G11  C0E917360   3.693   5.193  15.380
   268G11  C0E817361   3.554   5.179  15.445
   268G11  C0E717362   3.475   5.056  15.475
   268G11  C0EB17363   3.538   4.923  15.448
   268G11  C0EF17364   3.476   4.797  15.466
   268G11  C0EE17365   3.342   4.757  15.459
   268G11  C0FD17366   3.305   4.650  15.378
   268G11  C0FE17367   3.393   4.587  15.282
   268G11  H01B17368   3.494   4.626  15.282
   268G11  C0FF17369   3.347   4.492  15.193
   268G11  H01A17370   3.411   4.453  15.115
   268G11  C0FG17371   3.215   4.447  15.206
   268G11  H01817372   3.193   4.373  15.130
   268G11  C0FH17373   3.131   4.493  15.306
   268G11  C0FI17374   3.003   4.441  15.331
   268G11  H01917375   2.963   4.363  15.269
   268G11  O00K17376   2.919   4.485  15.429
   268G11  C0FL17377   2.963   4.585  15.505
   268G11  C0FK17378   3.091   4.648  15.489
   268G11  C0FM17379   3.128   4.754  15.573
   268G11  C0FN17380   3.039   4.797  15.674
   268G11  C0FP17381   2.916   4.732  15.693
   268G11  C0GO17382   2.815   4.777  15.771
   268G11  C0GN17383   2.682   4.736  15.775
   268G11  C0GR17384   2.660   4.617  15.706
   268G11  C0GS17385   2.538   4.548  15.716
   268G11  H01Q17386   2.538   4.451  15.668
   268G11  C0GT17387   2.431   4.612  15.790
   268G11  H01O17388   2.335   4.564  15.794
   268G11  C0GU17389   2.457   4.741  15.844
   268G11  H01P17390   2.376   4.784  15.901
   268G11  O00L17391   2.758   4.566  15.620
   268G11  C0GM17392   2.582   4.806  15.839
   268G11  C0GL17393   2.620   4.937  15.890
   268G11  H01R17394   2.544   5.004  15.926
   268G11  C0GK17395   2.754   4.969  15.909
   268G11  C0GP17396   2.830   5.090  15.947
   268G11  C0E217397   2.972   5.054  15.945
   268G11  C0E117398   3.047   5.177  15.930
   268G11  C0DU17399   3.140   5.202  15.821
   268G11  C0DT17400   3.215   5.116  15.740
   268G11  C0E417401   3.186   4.988  15.703
   268G11  C0E517402   3.265   4.951  15.600
   268G11  C0DS17403   3.296   5.164  15.639
   268G11  C0DR17404   3.289   5.304  15.609
   268G11  C0DD17405   3.372   5.371  15.518
   268G11  C0DC17406   3.309   5.503  15.522
   268G11  C0DP17407   3.192   5.516  15.606
   268G11  C0DA17408   3.097   5.631  15.623
   268G11  C0D917409   3.089   5.761  15.544
   268G11  C0CR17410   2.980   5.848  15.560
   268G11  C0C017411   2.870   5.821  15.637
   268G11  C0BZ17412   2.746   5.876  15.639
   268G11  C0C117413   2.641   5.825  15.713
   268G11  C0C717414   2.517   5.888  15.694
   268G11  C0C617415   2.406   5.832  15.759
   268G11  C0C917416   2.282   5.888  15.739
   268G11  C0B817417   2.168   5.816  15.776
   268G11  C0B717418   2.035   5.871  15.760
   268G11  C0B617419   1.906   5.803  15.769
   268G11  C0B517420   1.898   5.676  15.700
   268G11  H00Z17421   1.985   5.619  15.674
   268G11  C0B417422   1.758   5.670  15.647
   268G11  H01017423   1.723   5.607  15.567
   268G11  C0B317424   1.692   5.790  15.680
   268G11  C0AP17425   1.610   5.891  15.605
   268G11  C0AQ17426   1.675   6.014  15.640
   268G11  C0AR17427   1.664   6.127  15.553
   268G11  C0AS17428   1.768   6.211  15.565
   268G11  C0AT17429   1.890   6.175  15.615
   268G11  C0BA17430   1.907   6.062  15.685
   268G11  C0AU17431   2.006   6.245  15.576
   268G11  C0BE17432   2.130   6.184  15.583
   268G11  C0BI17433   2.244   6.244  15.527
   268G11  C0BJ17434   2.227   6.356  15.449
   268G11  C0BK17435   2.336   6.412  15.387
   268G11  C0BW17436   2.456   6.346  15.394
   268G11  C0BV17437   2.473   6.230  15.465
   268G11  C0BU17438   2.594   6.162  15.457
   268G11  C0BX17439   2.607   6.049  15.541
   268G11  C0BT17440   2.707   6.223  15.407
   268G11  C0CD17441   2.825   6.154  15.409
   268G11  C0CB17442   2.838   6.038  15.487
   268G11  C0CE17443   2.931   6.207  15.344
   268G11  C0CK17444   2.922   6.332  15.270
   268G11  C0BS17445   2.801   6.401  15.263
   268G11  C0CJ17446   2.789   6.528  15.197
   268G11  C0BP17447   2.664   6.592  15.199
   268G11  C0CI17448   2.656   6.718  15.147
   268G11  C0CH17449   2.531   6.783  15.171
   268G11  H01217450   2.523   6.889  15.150
   268G11  C0BN17451   2.414   6.721  15.213
   268G11  C0CG17452   2.291   6.773  15.194
   268G11  C0CF17453   2.268   6.900  15.124
   268G11  H01317454   2.350   6.961  15.090
   268G11  O00G17455   2.140   6.951  15.100
   268G11  C0AA17456   2.032   6.883  15.142
   268G11  C0A917457   1.906   6.930  15.113
   268G11  H00U17458   1.895   7.027  15.068
   268G11  C0A817459   1.793   6.856  15.130
   268G11  H00V17460   1.703   6.900  15.090
   268G11  C0A717461   1.798   6.721  15.182
   268G11  C0A617462   1.925   6.681  15.235
   268G11  C0A517463   1.951   6.568  15.313
   268G11  C0A417464   1.842   6.496  15.367
   268G11  C0A317465   1.707   6.463  15.320
   268G11  C0A217466   1.643   6.521  15.211
   268G11  C0A117467   1.508   6.482  15.172
   268G11  C0A017468   1.418   6.368  15.200
   268G11  C09Z17469   1.293   6.380  15.140
   268G11  C09Y17470   1.207   6.261  15.123
   268G11  H00Y17471   1.113   6.266  15.072
   268G11  C09X17472   1.254   6.136  15.184
   268G11  C09W17473   1.181   6.023  15.147
   268G11  H00R17474   1.102   6.030  15.074
   268G11  C0AX17475   1.217   5.898  15.209
   268G11  H00S17476   1.169   5.808  15.172
   268G11  C0AW17477   1.325   5.893  15.300
   268G11  H00T17478   1.358   5.802  15.349
   268G11  C0AN17479   1.395   6.006  15.333
   268G11  C0AO17480   1.493   6.013  15.432
   268G11  C0AM17481   1.370   6.126  15.260
   268G11  C0B217482   1.236   6.497  15.067
   268G11  O00D17483   1.126   6.495  15.012
   268G11  C0B117484   1.320   6.606  15.065
   268G11  H00W17485   1.270   6.695  15.029
   268G11  C0AL17486   1.452   6.248  15.274
   268G11  C0AK17487   1.557   6.245  15.370
   268G11  C0B017488   1.455   6.593  15.112
   268G11  C0AZ17489   1.547   6.703  15.120
   268G11  H00X17490   1.525   6.803  15.088
   268G11  C0AJ17491   1.663   6.340  15.380
   268G11  C0AH17492   1.868   6.409  15.473
   268G11  C0AE17493   2.078   6.517  15.344
   268G11  C0AD17494   2.190   6.581  15.291
   268G11  C0AY17495   1.672   6.652  15.174
   268G11  C0AB17496   2.046   6.755  15.202
   268G11  C0AC17497   2.171   6.702  15.227
   268G11  C0BM17498   2.426   6.592  15.255
   268G11  C0CM17499   2.753   6.772  15.059
   268G11  C09M17500   2.885   6.719  15.076
   268G11  C09817501   2.989   6.810  15.046
   268G11  C08R17502   3.123   6.786  15.002
   268G11  C08Q17503   3.200   6.900  14.971
   268G11  C08P17504   3.321   6.942  14.898
   268G11  C08Y17505   3.332   7.075  14.852
   268G11  C09717506   3.213   7.148  14.853
   268G11  C09617507   3.213   7.213  14.735
   268G11  C09017508   3.344   7.221  14.684
   268G11  C09517509   3.389   7.281  14.568
   268G11  C09417510   3.523   7.300  14.530
   268G11  C08J17511   3.633   7.223  14.570
   268G11  C08I17512   3.718   7.205  14.454
   268G11  C08H17513   3.795   7.085  14.476
   268G11  C08G17514   3.735   7.010  14.585
   268G11  C08F17515   3.763   6.893  14.667
   268G11  C08E17516   3.887   6.823  14.653
   268G11  C05917517   4.007   6.867  14.597
   268G11  C05817518   4.133   6.799  14.607
   268G11  C05717519   4.250   6.825  14.533
   268G11  C05617520   4.251   6.947  14.473
   268G11  C05517521   4.155   7.037  14.476
   268G11  C05417522   4.156   7.125  14.373
   268G11  C05317523   4.253   7.073  14.271
   268G11  C05217524   4.263   7.106  14.132
   268G11  C05117525   4.177   7.206  14.061
   268G11  C05U17526   4.062   7.277  14.120
   268G11  C05T17527   3.996   7.275  14.247
   268G11  C06K17528   3.902   7.382  14.250
   268G11  H00J17529   3.845   7.416  14.335
   268G11  C06L17530   3.905   7.446  14.123
   268G11  H00I17531   3.842   7.526  14.088
   268G11  C05V17532   4.000   7.376  14.044
   268G11  C06J17533   4.021   7.399  13.914
   268G11  H00K17534   3.959   7.468  13.859
   268G11  C05X17535   4.123   7.331  13.850
   268G11  C06I17536   4.148   7.342  13.712
   268G11  H00L17537   4.087   7.413  13.658
   268G11  C04Z17538   4.245   7.267  13.640
   268G11  C06H17539   4.259   7.285  13.494
   268G11  H00H17540   4.204   7.362  13.442
   268G11  C04Y17541   4.360   7.203  13.424
   268G11  C06G17542   4.375   7.223  13.280
   268G11  O00917543   4.328   7.320  13.218
   268G11  O00817544   4.463   7.131  13.218
   268G11  C04P17545   4.534   7.039  13.288
   268G11  C04J17546   4.626   6.948  13.227
   268G11  C04Q17547   4.656   6.947  13.089
   268G11  H00E17548   4.623   7.029  13.028
   268G11  C04M17549   4.752   6.853  13.038
   268G11  C04R17550   4.791   6.856  12.904
   268G11  H00F17551   4.758   6.938  12.842
   268G11  C04S17552   4.866   6.752  12.859
   268G11  H00G17553   4.898   6.746  12.756
   268G11  O00717554   4.913   6.650  12.938
   268G11  C03V17555   4.861   6.647  13.065
   268G11  C03U17556   4.898   6.538  13.142
   268G11  O00617557   4.959   6.436  13.077
   268G11  C03F17558   4.966   6.321  13.148
   268G11  C03E17559   4.948   6.314  13.283
   268G11  C03D17560   4.903   6.426  13.352
   268G11  C03C17561   4.888   6.424  13.493
   268G11  C03B17562   4.933   6.306  13.556
   268G11  C03A17563   4.921   6.303  13.696
   268G11  C03917564   4.879   6.412  13.775
   268G11  C03817565   4.882   6.349  13.908
   268G11  C03717566   4.944   6.225  13.892
   268G11  C03617567   4.968   6.147  14.002
   268G11  C02R17568   5.020   6.020  14.003
   268G11  C03517569   4.983   5.979  14.133
   268G11  C03R17570   4.919   6.069  14.208
   268G11  C03S17571   4.820   6.041  14.302
   268G11  C04917572   4.732   6.142  14.340
   268G11  C04817573   4.736   6.256  14.260
   268G11  C03P17574   4.819   6.284  14.145
   268G11  C04717575   4.645   6.356  14.311
   268G11  C04617576   4.644   6.489  14.272
   268G11  C04517577   4.695   6.554  14.161
   268G11  C03T17578   4.769   6.506  14.052
   268G11  C04417579   4.766   6.614  13.956
   268G11  C04317580   4.711   6.731  14.019
   268G11  C04217581   4.648   6.807  13.922
   268G11  C04117582   4.694   6.745  13.793
   268G11  C04017583   4.653   6.790  13.662
   268G11  C03Z17584   4.708   6.750  13.536
   268G11  C04H17585   4.657   6.840  13.439
   268G11  C04G17586   4.576   6.930  13.499
   268G11  C03N17587   4.792   6.644  13.485
   268G11  C03Y17588   4.809   6.642  13.344
   268G11  C03X17589   4.762   6.746  13.258
   268G11  C04F17590   4.572   6.912  13.635
   268G11  C04E17591   4.491   7.002  13.713
   268G11  C04O17592   4.417   7.098  13.640
   268G11  C04D17593   4.475   6.989  13.852
   268G11  C04V17594   4.374   7.068  13.914
   268G11  C04W17595   4.298   7.168  13.846
   268G11  C04C17596   4.536   6.905  13.948
   268G11  C04L17597   4.470   6.946  14.071
   268G11  C04U17598   4.495   6.876  14.196
   268G11  C05Q17599   4.421   6.883  14.318
   268G11  C05P17600   4.435   6.775  14.401
   268G11  C04T17601   4.520   6.688  14.338
   268G11  C04B17602   4.561   6.752  14.219
   268G11  C03M17603   4.771   6.622  13.812
   268G11  C04A17604   4.653   6.686  14.139
   268G11  C05H17605   4.557   6.555  14.359
   268G11  C05G17606   4.510   6.465  14.462
   268G11  C05F17607   4.432   6.495  14.574
   268G11  C05E17608   4.355   6.393  14.645
   268G11  C05L17609   4.352   6.243  14.653
   268G11  C05K17610   4.449   6.164  14.590
   268G11  C05J17611   4.549   6.202  14.488
   268G11  C06617612   4.445   6.028  14.630
   268G11  C06517613   4.345   5.979  14.720
   268G11  C06417614   4.241   6.060  14.768
   268G11  C06N17615   4.340   5.844  14.754
   268G11  C06917616   4.434   5.753  14.704
   268G11  C06P17617   4.439   5.620  14.750
   268G11  C06R17618   4.533   5.526  14.698
   268G11  C06B17619   4.621   5.566  14.609
   268G11  C06S17620   4.706   5.473  14.551
   268G11  C02G17621   4.799   5.512  14.450
   268G11  C02F17622   4.870   5.418  14.376
   268G11  C02717623   4.846   5.283  14.399
   268G11  C02617624   4.908   5.180  14.320
   268G11  C00E17625   4.889   5.045  14.345
   268G11  C00D17626   4.946   4.952  14.260
   268G11  C00C17627   4.918   4.820  14.285
   268G11  C00B17628   4.836   4.777  14.386
   268G11  C01517629   4.783   4.873  14.469
   268G11  C07F17630   4.704   4.834  14.574
   268G11  C07E17631   4.643   4.929  14.655
   268G11  C06W17632   4.656   5.060  14.627
   268G11  C06V17633   4.741   5.101  14.522
   268G11  C06X17634   4.587   5.156  14.704
   268G11  C07B17635   4.497   5.118  14.801
   268G11  C07C17636   4.485   4.983  14.827
   268G11  C0FU17637   4.387   4.941  14.911
   268G11  C0F717638   4.374   4.806  14.938
   268G11  C0F617639   4.277   4.764  15.035
   268G11  C0F817640   4.267   4.632  15.073
   268G11  C0F917641   4.186   4.598  15.178
   268G11  C0FA17642   4.186   4.470  15.224
   268G11  C0FZ17643   4.278   4.382  15.173
   268G11  C0G017644   4.286   4.253  15.226
   268G11  C0GD17645   4.216   4.219  15.344
   268G11  C0FC17646   4.124   4.309  15.398
   268G11  C0GH17647   4.044   4.269  15.504
   268G11  C0EY17648   3.934   4.348  15.535
   268G11  C0EX17649   3.835   4.304  15.623
   268G11  C0EW17650   3.717   4.382  15.634
   268G11  C0FR17651   3.619   4.347  15.732
   268G11  H01D17652   3.535   4.413  15.749
   268G11  C0FS17653   3.645   4.239  15.814
   268G11  H01C17654   3.571   4.205  15.885
   268G11  C0GJ17655   3.762   4.162  15.808
   268G11  H01N17656   3.787   4.079  15.873
   268G11  C0EV17657   3.698   4.495  15.562
   268G11  C0FT17658   3.575   4.567  15.552
   268G11  H01E17659   3.479   4.536  15.589
   268G11  C0EU17660   3.806   4.548  15.491
   268G11  C0ET17661   3.805   4.680  15.439
   268G11  C0EI17662   3.902   4.738  15.366
   268G11  C0F117663   4.001   4.650  15.323
   268G11  C0F017664   4.009   4.518  15.380
   268G11  C0EH17665   3.891   4.875  15.321
   268G11  C0EG17666   3.782   4.959  15.356
   268G11  C0EJ17667   4.004   4.919  15.243
   268G11  C0F317668   4.101   4.826  15.193
   268G11  C0EK17669   4.005   5.052  15.205
   268G11  C0EL17670   3.910   5.147  15.254
   268G11  C0EM17671   3.943   5.285  15.217
   268G11  C0EN17672   4.068   5.316  15.157
   268G11  C07I17673   4.072   5.444  15.111
   268G11  C07417674   4.163   5.487  15.013
   268G11  C07317675   4.149   5.614  14.970
   268G11  C07217676   4.248   5.662  14.884
   268G11  C07517677   4.249   5.397  14.970
   268G11  C07617678   4.239   5.263  15.008
   268G11  C07817679   4.323   5.170  14.949
   268G11  C07G17680   4.342   5.438  14.879
   268G11  C07017681   4.423   5.342  14.824
   268G11  C07Z17682   3.956   5.513  15.148
   268G11  C07717683   4.146   5.218  15.097
   268G11  C0EO17684   4.114   5.090  15.124
   268G11  C0F417685   4.207   4.996  15.071
   268G11  C0EQ17686   3.688   4.754  15.454
   268G11  C0FQ17687   3.863   4.193  15.706
   268G11  C0GI17688   3.985   4.126  15.680
   268G11  H01L17689   4.002   4.048  15.753
   268G11  C0EZ17690   3.921   4.474  15.472
   268G11  C0GG17691   4.066   4.153  15.572
   268G11  C0GF17692   4.174   4.073  15.526
   268G11  H01M17693   4.199   3.978  15.570
   268G11  C0GE17694   4.249   4.101  15.414
   268G11  H01K17695   4.318   4.031  15.371
   268G11  O00J17696   4.368   4.159  15.172
   268G11  C0GA17697   4.444   4.191  15.059
   268G11  C0G917698   4.522   4.091  14.993
   268G11  H01H17699   4.522   4.000  15.051
   268G11  C0G817700   4.590   4.117  14.872
   268G11  C0G717701   4.666   4.028  14.795
   268G11  H01I17702   4.672   3.927  14.832
   268G11  O00I17703   4.723   4.045  14.674
   268G11  C0G617704   4.728   4.178  14.638
   268G11  H01J17705   4.796   4.197  14.556
   268G11  C02D17706   4.657   4.285  14.706
   268G11  C02C17707   4.658   4.418  14.658
   268G11  C01717708   4.716   4.458  14.533
   268G11  C01617709   4.737   4.595  14.508
   268G11  O00117710   4.766   4.370  14.441
   268G11  C01817711   4.807   4.408  14.323
   268G11  C00917712   4.849   4.542  14.300
   268G11  C00817713   4.909   4.593  14.183
   268G11  C00717714   4.936   4.554  14.046
   268G11  C00617715   4.910   4.427  13.999
   268G11  C00517716   4.916   4.391  13.859
   268G11  C00417717   4.947   4.471  13.740
   268G11  C00317718   5.005   4.611  13.726
   268G11  C00217719   5.036   4.663  13.598
   268G11  C00P17720   5.088   4.795  13.584
   268G11  C00O17721   5.116   4.846  13.460
   268G11  C00N17722   5.151   4.978  13.437
   268G11  C01017723   5.162   5.029  13.305
   268G11  C01117724   5.179   5.167  13.280
   268G11  C01Q17725   5.183   5.219  13.150
   268G11  C01U17726   5.174   5.130  13.035
   268G11  C01217727   5.162   4.994  13.062
   268G11  H00017728   5.152   4.926  12.978
   268G11  C01V17729   5.166   5.194  12.910
   268G11  H00717730   5.169   5.127  12.825
   268G11  O00517731   5.174   5.330  12.886
   268G11  C01W17732   5.203   5.408  12.996
   268G11  C03117733   5.219   5.544  12.974
   268G11  C03217734   5.237   5.629  13.081
   268G11  H00A17735   5.254   5.735  13.068
   268G11  C03317736   5.246   5.573  13.212
   268G11  H00B17737   5.284   5.643  13.285
   268G11  C01O17738   5.215   5.439  13.239
   268G11  C01N17739   5.198   5.395  13.368
   268G11  C01M17740   5.214   5.480  13.487
   268G11  C01L17741   5.196   5.621  13.528
   268G11  C01K17742   5.216   5.629  13.666
   268G11  C01Y17743   5.165   5.733  13.749
   268G11  C02I17744   5.114   5.847  13.685
   268G11  C02N17745   5.066   5.949  13.769
   268G11  C02M17746   5.022   6.066  13.701
   268G11  C02L17747   5.011   6.071  13.559
   268G11  C02K17748   5.035   5.957  13.485
   268G11  C02U17749   5.006   5.957  13.350
   268G11  C02V17750   4.992   6.078  13.279
   268G11  C03H17751   5.007   6.085  13.140
   268G11  H00C17752   5.043   6.000  13.083
   268G11  C02W17753   4.987   5.837  13.288
   268G11  C02X17754   5.033   5.724  13.355
   268G11  C02Y17755   4.951   5.626  13.293
   268G11  H00817756   4.956   5.518  13.297
   268G11  C02Z17757   4.875   5.686  13.179
   268G11  O00417758   4.806   5.631  13.097
   268G11  O00317759   4.912   5.813  13.180
   268G11  C02J17760   5.096   5.844  13.546
   268G11  C01Z17761   5.134   5.694  13.880
   268G11  C02017762   5.144   5.561  13.925
   268G11  C01I17763   5.179   5.458  13.841
   268G11  C01H17764   5.153   5.327  13.861
   268G11  C00K17765   5.174   5.235  13.760
   268G11  C01S17766   5.207   5.274  13.629
   268G11  C01417767   5.186   5.197  13.519
   268G11  C00J17768   5.140   5.104  13.776
   268G11  C00I17769   5.100   5.065  13.899
   268G11  C00H17770   5.078   5.158  14.001
   268G11  C00G17771   5.027   5.119  14.123
   268G11  C00S17772   5.073   4.933  13.918
   268G11  C00T17773   5.039   4.897  14.044
   268G11  C00U17774   4.991   4.766  14.066
   268G11  C00R17775   5.067   4.839  13.817
   268G11  C00L17776   5.142   5.018  13.671
   268G11  C02817777   5.100   5.288  13.979
   268G11  C02317778   5.064   5.386  14.073
   268G11  C02417779   5.003   5.353  14.187
   268G11  C02117780   5.086   5.522  14.048
   268G11  C02217781   5.037   5.623  14.130
   268G11  C02H17782   4.967   5.587  14.245
   268G11  C03017783   4.898   5.685  14.319
   268G11  C03417784   4.899   5.815  14.277
   268G11  C02P17785   5.037   5.756  14.087
   268G11  C02B17786   5.083   5.793  13.963
   268G11  C01J17787   5.237   5.498  13.718
   268G11  C01X17788   5.114   5.721  13.471
   268G11  C01T17789   5.232   5.411  13.609
   268G11  H00917790   5.225   5.596  12.880
   268G11  C01P17791   5.202   5.355  13.129
   268G11  C01R17792   5.190   5.256  13.390
   268G11  C00Z17793   5.154   4.944  13.196
   268G11  O00017794   5.128   4.812  13.216
   268G11  C00M17795   5.163   5.065  13.543
   268G11  C00Y17796   5.109   4.763  13.341
   268G11  C01317797   5.058   4.633  13.360
   268G11  H00117798   5.050   4.572  13.271
   268G11  C00Q17799   5.101   4.884  13.689
   268G11  C00117800   5.013   4.592  13.481
   268G11  C00017801   4.957   4.463  13.497
   268G11  H00617802   4.929   4.414  13.404
   268G11  C00W17803   5.025   4.702  13.835
   268G11  C01G17804   4.922   4.410  13.621
   268G11  H00517805   4.890   4.307  13.624
   268G11  C01C17806   4.880   4.246  13.861
   268G11  H00217807   4.867   4.168  13.788
   268G11  C01B17808   4.843   4.209  13.997
   268G11  C01D17809   4.811   4.079  14.041
   268G11  H00317810   4.817   3.997  13.972
   268G11  C01E17811   4.789   4.073  14.173
   268G11  H00417812   4.777   3.972  14.210
   268G11  O00217813   4.797   4.176  14.268
   268G11  C01A17814   4.858   4.320  14.081
   268G11  C00V17815   4.986   4.665  13.972
   268G11  C01917816   4.821   4.307  14.224
   268G11  C02E17817   4.598   4.517  14.735
   268G11  C0FX17818   4.520   4.482  14.847
   268G11  C0FW17819   4.438   4.579  14.909
   268G11  C0GB17820   4.522   4.350  14.890
   268G11  C0G317821   4.607   4.653  14.701
   268G11  C07H17822   4.539   4.754  14.773
   268G11  C0GC17823   4.591   4.249  14.828
   268G11  C0G217824   4.439   4.316  15.001
   268G11  C0G117825   4.358   4.413  15.062
   268G11  C0FB17826   4.098   4.428  15.332
   268G11  C0F217827   4.097   4.688  15.232
   268G11  C0FY17828   4.356   4.542  15.015
   268G11  C0F517829   4.200   4.862  15.101
   268G11  C0FV17830   4.455   4.713  14.872
   268G11  C07917831   4.304   5.036  14.976
   268G11  C07A17832   4.415   5.208  14.856
   268G11  C06Y17833   4.602   5.289  14.671
   268G11  C07D17834   4.554   4.890  14.753
   268G11  C01F17835   4.683   4.694  14.592
   268G11  C00A17836   4.812   4.638  14.398
   268G11  C00X17837   4.953   4.724  14.191
   268G11  C00F17838   5.006   4.985  14.146
   268G11  C02917839   4.808   5.006  14.448
   268G11  C02517840   4.982   5.217  14.212
   268G11  C06U17841   4.761   5.241  14.501
   268G11  C02A17842   4.953   5.453  14.275
   268G11  C05Y17843   4.812   5.650  14.425
   268G11  C05Z17844   4.726   5.742  14.483
   268G11  C06017845   4.725   5.874  14.437
   268G11  C06217846   4.635   5.972  14.493
   268G11  C06T17847   4.695   5.336  14.578
   268G11  C06A17848   4.625   5.701  14.568
   268G11  C06Z17849   4.519   5.386  14.731
   268G11  C06Q17850   4.341   5.574  14.838
   268G11  C06817851   4.535   5.797  14.618
   268G11  C06717852   4.539   5.934  14.582
   268G11  C06317853   4.244   6.194  14.732
   268G11  C06C17854   4.144   6.276  14.782
   268G11  C06D17855   4.138   6.414  14.757
   268G11  C06E17856   4.025   6.494  14.766
   268G11  C07Q17857   3.916   6.436  14.831
   268G11  C07P17858   3.925   6.301  14.879
   268G11  C07T17859   3.818   6.254  14.952
   268G11  C07U17860   3.824   6.125  14.998
   268G11  C07V17861   3.719   6.069  15.069
   268G11  C08417862   3.610   6.148  15.095
   268G11  C08C17863   3.606   6.279  15.043
   268G11  C08B17864   3.486   6.343  15.055
   268G11  C08A17865   3.479   6.469  14.997
   268G11  C08917866   3.584   6.528  14.932
   268G11  C08817867   3.563   6.657  14.875
   268G11  C08717868   3.673   6.718  14.810
   268G11  C08617869   3.790   6.645  14.795
   268G11  C08X17870   3.439   6.721  14.886
   268G11  C08T17871   3.323   6.651  14.937
   268G11  C08D17872   3.700   6.456  14.918
   268G11  C08U17873   3.351   6.524  14.990
   268G11  C08V17874   3.246   6.466  15.058
   268G11  C0CY17875   3.258   6.357  15.134
   268G11  C0CX17876   3.151   6.314  15.205
   268G11  C0CW17877   3.163   6.193  15.276
   268G11  C0CV17878   3.280   6.118  15.261
   268G11  C0D417879   3.385   6.167  15.181
   268G11  C0CU17880   3.281   5.993  15.316
   268G11  C0CT17881   3.175   5.942  15.391
   268G11  C0CS17882   3.059   6.015  15.406
   268G11  C0D617883   3.403   5.930  15.298
   268G11  C0EC17884   3.512   5.975  15.227
   268G11  C07X17885   3.618   5.896  15.200
   268G11  C0DL17886   3.407   5.802  15.350
   268G11  C0DK17887   3.516   5.725  15.327
   268G11  C0DN17888   3.489   5.612  15.391
   268G11  C0D817889   3.303   5.742  15.425
   268G11  C08W17890   3.135   6.549  15.051
   268G11  C0CQ17891   3.016   6.510  15.129
   268G11  C09317892   3.376   6.289  15.119
   268G11  C09217893   3.501   6.092  15.162
   268G11  C08517894   3.710   6.333  14.975
   268G11  C07S17895   3.803   6.511  14.849
   268G11  C06F17896   4.018   6.628  14.725
   268G11  C07O17897   4.033   6.218  14.845
   268G11  C07N17898   4.031   6.089  14.882
   268G11  C05D17899   4.251   6.467  14.703
   268G11  C05C17900   4.246   6.598  14.667
   268G11  C05N17901   4.356   6.619  14.590
   268G11  C05M17902   4.564   6.338  14.430
   268G11  C05I17903   4.642   6.107  14.445
   268G11  C06117904   4.820   5.909  14.349
   268G11  C02Q17905   4.972   5.844  14.166
   268G11  C02O17906   5.060   5.920  13.907
   268G11  C03Q17907   4.905   6.176  14.124
   268G11  C03O17908   4.823   6.384  14.042
   268G11  C03L17909   4.820   6.527  13.716
   268G11  C02S17910   4.974   6.190  13.764
   268G11  C02T17911   4.970   6.190  13.489
   268G11  C03K17912   4.830   6.533  13.568
   268G11  C03I17913   4.969   6.193  13.349
   268G11  C03G17914   4.998   6.206  13.078
   268G11  H00D17915   5.003   6.212  12.970
   268G11  C03J17916   4.872   6.536  13.282
   268G11  C03W17917   4.788   6.747  13.122
   268G11  C04I17918   4.679   6.845  13.302
   268G11  C04K17919   4.513   7.025  13.426
   268G11  C04N17920   4.432   7.111  13.495
   268G11  C04X17921   4.326   7.179  13.710
   268G11  C05017922   4.199   7.236  13.924
   268G11  C05W17923   4.359   7.038  14.046
   268G11  C05S17924   4.021   7.169  14.352
   268G11  C05R17925   4.320   6.974  14.349
   268G11  C05O17926   4.360   6.742  14.512
   268G11  C05B17927   4.129   6.679  14.669
   268G11  C05A17928   4.025   6.993  14.521
   268G11  C07R17929   3.899   6.701  14.730
   268G11  C08N17930   3.653   6.841  14.745
   268G11  C08M17931   3.536   6.914  14.772
   268G11  C08L17932   3.529   7.044  14.720
   268G11  C09117933   3.939   7.085  14.449
   268G11  C09K17934   3.633   7.245  14.341
   268G11  H00M17935   3.632   7.203  14.242
   268G11  C08K17936   3.630   7.093  14.632
   268G11  C09J17937   3.530   7.334  14.392
   268G11  C09I17938   3.394   7.362  14.354
   268G11  C09L17939   3.335   7.426  14.239
   268G11  H00N17940   3.396   7.460  14.156
   268G11  C09Q17941   3.204   7.458  14.245
   268G11  H00O17942   3.160   7.503  14.157
   268G11  O00B17943   3.115   7.420  14.345
   268G11  C09G17944   3.171   7.356  14.452
   268G11  C09F17945   3.067   7.316  14.539
   268G11  O00A17946   2.946   7.351  14.494
   268G11  C09P17947   2.842   7.272  14.534
   268G11  H00P17948   2.767   7.250  14.459
   268G11  C09O17949   2.835   7.215  14.667
   268G11  C09D17950   2.964   7.194  14.734
   268G11  C09C17951   2.984   7.116  14.855
   268G11  C09N17952   2.902   7.022  14.933
   268G11  C09T17953   2.777   6.976  14.899
   268G11  C09S17954   2.695   7.044  14.806
   268G11  C0CP17955   2.572   6.978  14.815
   268G11  C0CN17956   2.568   6.868  14.897
   268G11  C0CO17957   2.458   6.783  14.890
   268G11  H01417958   2.447   6.696  14.953
   268G11  C0CZ17959   2.351   6.823  14.805
   268G11  H01517960   2.274   6.748  14.792
   268G11  C0D017961   2.355   6.939  14.730
   268G11  C0G517962   2.249   6.984  14.652
   268G11  H01F17963   2.158   6.930  14.631
   268G11  C0G417964   2.255   7.096  14.580
   268G11  H01G17965   2.170   7.130  14.523
   268G11  O00H17966   2.365   7.179  14.576
   268G11  C0D217967   2.468   7.140  14.653
   268G11  C09V17968   2.590   7.210  14.656
   268G11  H00Q17969   2.583   7.297  14.593
   268G11  C0D117970   2.466   7.023  14.728
   268G11  C09R17971   2.710   7.158  14.717
   268G11  C09H17972   3.309   7.329  14.462
   268G11  C09E17973   3.083   7.248  14.667
   268G11  C09B17974   3.104   7.103  14.912
   268G11  C08Z17975   3.408   7.112  14.744
   268G11  C08O17976   3.431   6.856  14.853
   268G11  C09A17977   3.111   7.004  15.019
   268G11  C08S17978   3.178   6.663  14.975
   268G11  C09917979   2.980   6.952  15.032
   268G11  C09U17980   2.705   6.867  14.958
   268G11  C0BO17981   2.554   6.529  15.258
   268G11  C0CL17982   2.896   6.586  15.132
   268G11  C0D317983   3.031   6.386  15.200
   268G11  C0D517984   3.053   6.143  15.344
   268G11  C0BR17985   2.690   6.347  15.338
   268G11  C0BQ17986   2.563   6.407  15.332
   268G11  C0BL17987   2.319   6.527  15.313
   268G11  C0AF17988   2.098   6.411  15.431
   268G11  C0BH17989   2.368   6.181  15.534
   268G11  C0BG17990   2.378   6.062  15.609
   268G11  C0BD17991   2.142   6.063  15.658
   268G11  C0AG17992   1.999   6.357  15.504
   268G11  C0AI17993   1.763   6.321  15.475
   268G11  C0AV17994   1.569   6.131  15.453
   268G11  C0BB17995   1.790   5.989  15.713
   268G11  O00C17996   1.529   5.893  15.496
   268G11  C0BC17997   1.780   5.862  15.766
   268G11  C0B917998   2.028   6.002  15.705
   268G11  O00E17999   2.179   5.692  15.831
   268G11  C0CA18000   2.297   5.643  15.876
   268G11  O00F18001   2.296   5.537  15.938
   268G11  C0BF18002   2.268   6.005  15.670
   268G11  C0C518003   2.418   5.715  15.835
   268G11  C0C418004   2.545   5.657  15.869
   268G11  H01118005   2.555   5.581  15.946
   268G11  C0C818006   2.501   6.002  15.618
   268G11  C0C218007   2.656   5.723  15.805
   268G11  C0C318008   2.794   5.688  15.821
   268G11  C0DY18009   2.829   5.563  15.875
   268G11  H01618010   2.770   5.502  15.941
   268G11  C0DX18011   2.952   5.525  15.823
   268G11  C0DW18012   3.005   5.392  15.838
   268G11  C0BY18013   2.729   5.986  15.554
   268G11  C0DB18014   2.885   5.716  15.727
   268G11  C0CC18015   2.962   5.969  15.489
   268G11  C0D718016   3.183   5.815  15.450
   268G11  C0DZ18017   2.991   5.620  15.723
   268G11  C0DM18018   3.362   5.619  15.458
   268G11  C0DQ18019   3.200   5.392  15.676
   268G11  C0DV18020   3.120   5.337  15.775
   268G11  C0E018021   2.949   5.284  15.923
   268G11  C0FO18022   2.981   4.940  15.858
   268G11  C0E318023   2.813   5.233  15.923
   268G11  H01718024   2.734   5.290  15.876
   268G11  C0GV18025   2.850   4.878  15.863
   268G11  C0ES18026   3.073   4.915  15.748
   268G11  C0GQ18027   2.874   4.627  15.604
   268G11  C0FJ18028   3.178   4.592  15.390
   268G11  C0ED18029   3.250   4.824  15.543
   268G11  C0ER18030   3.572   4.697  15.499
   268G11  C0EP18031   3.672   4.884  15.409
   268G11  C0E618032   3.352   5.056  15.560
   268G11  C0DE18033   3.505   5.313  15.477
   268G11  C0EA18034   3.792   5.097  15.326
   268G11  C0DF18035   3.608   5.399  15.454
   268G11  C08018036   3.883   5.415  15.224
   268G11  C0DO18037   3.594   5.522  15.384
   268G11  C0DJ18038   3.625   5.769  15.249
   268G11  C07K18039   3.944   5.647  15.097
   268G11  C07W18040   3.725   5.945  15.124
   268G11  C08318041   3.929   6.039  14.962
   268G11  C07J18042   4.043   5.696  15.009
   268G11  C06O18043   4.238   5.792  14.837
   268G11  C06M18044   4.137   6.010  14.846
   278G11  C07118045   2.139   2.758   9.080
   278G11  C07L18046   2.014   2.698   9.049
   278G11  C07M18047   2.002   2.604   8.946
   278G11  C07Y18048   1.877   2.555   8.912
   278G11  C08118049   1.756   2.601   8.978
   278G11  C08218050   1.633   2.554   8.926
   278G11  C0DI18051   1.500   2.606   8.954
   278G11  C0DH18052   1.445   2.704   9.045
   278G11  C0DG18053   1.315   2.746   8.996
   278G11  C0E918054   1.197   2.788   9.069
   278G11  C0E818055   1.084   2.719   8.998
   278G11  C0E718056   0.940   2.713   9.034
   278G11  C0EB18057   0.888   2.774   9.151
   278G11  C0EF18058   0.762   2.753   9.222
   278G11  C0EE18059   0.661   2.656   9.222
   278G11  C0FD18060   0.604   2.610   9.345
   278G11  C0FE18061   0.660   2.635   9.474
   278G11  H01B18062   0.748   2.697   9.489
   278G11  C0FF18063   0.603   2.578   9.584
   278G11  H01A18064   0.652   2.592   9.679
   278G11  C0FG18065   0.483   2.507   9.574
   278G11  H01818066   0.446   2.462   9.665
   278G11  C0FH18067   0.429   2.472   9.448
   278G11  C0FI18068   0.317   2.386   9.428
   278G11  H01918069   0.278   2.347   9.521
   278G11  O00K18070   0.265   2.364   9.304
   278G11  C0FL18071   0.320   2.426   9.196
   278G11  C0FK18072   0.434   2.501   9.205
   278G11  C0FM18073   0.491   2.553   9.084
   278G11  C0FN18074   0.427   2.529   8.960
   278G11  C0FP18075   0.311   2.449   8.958
   278G11  C0GO18076   0.259   2.402   8.845
   278G11  C0GN18077   0.164   2.298   8.832
   278G11  C0GR18078   0.111   2.256   8.957
   278G11  C0GS18079   0.016   2.143   8.948
   278G11  H01Q18080  -0.024   2.114   9.044
   278G11  C0GT18081  -0.003   2.069   8.833
   278G11  H01O18082  -0.064   1.980   8.839
   278G11  C0GU18083   0.053   2.121   8.712
   278G11  H01P18084   0.021   2.072   8.621
   278G11  O00L18085   0.145   2.320   9.074
   278G11  C0GM18086   0.130   2.240   8.706
   278G11  C0GL18087   0.197   2.289   8.590
   278G11  H01R18088   0.172   2.247   8.494
   278G11  C0GK18089   0.290   2.393   8.600
   278G11  C0GP18090   0.388   2.460   8.512
   278G11  C0E218091   0.453   2.564   8.582
   278G11  C0E118092   0.589   2.564   8.539
   278G11  C0DU18093   0.702   2.581   8.620
   278G11  C0DT18094   0.720   2.621   8.749
   278G11  C0E418095   0.621   2.623   8.848
   278G11  C0E518096   0.687   2.640   8.968
   278G11  C0DS18097   0.841   2.624   8.813
   278G11  C0DR18098   0.947   2.570   8.741
   278G11  C0DD18099   1.081   2.562   8.781
   278G11  C0DC18100   1.148   2.476   8.685
   278G11  C0DP18101   1.062   2.440   8.580
   278G11  C0DA18102   1.080   2.345   8.464
   278G11  C0D918103   1.209   2.295   8.404
   278G11  C0CR18104   1.205   2.216   8.286
   278G11  C0C018105   1.086   2.170   8.235
   278G11  C0BZ18106   1.076   2.078   8.130
   278G11  C0C118107   0.957   2.008   8.104
   278G11  C0C718108   0.953   1.907   8.012
   278G11  C0C618109   0.832   1.833   7.991
   278G11  C0C918110   0.834   1.729   7.902
   278G11  C0B818111   0.716   1.650   7.887
   278G11  C0B718112   0.700   1.555   7.781
   278G11  C0B618113   0.596   1.456   7.744
   278G11  C0B518114   0.527   1.382   7.838
   278G11  H00Z18115   0.513   1.404   7.943
   278G11  C0B418116   0.488   1.254   7.779
   278G11  H01018117   0.460   1.165   7.835
   278G11  C0B318118   0.549   1.248   7.644
   278G11  C0AP18119   0.626   1.157   7.551
   278G11  C0AQ18120   0.726   1.244   7.497
   278G11  C0AR18121   0.849   1.191   7.475
   278G11  C0AS18122   0.954   1.276   7.487
   278G11  C0AT18123   0.946   1.405   7.540
   278G11  C0BA18124   0.826   1.446   7.592
   278G11  C0AU18125   1.060   1.468   7.570
   278G11  C0BE18126   1.059   1.575   7.658
   278G11  C0BI18127   1.180   1.635   7.689
   278G11  C0BJ18128   1.300   1.595   7.631
   278G11  C0BK18129   1.419   1.669   7.642
   278G11  C0BW18130   1.417   1.781   7.720
   278G11  C0BV18131   1.300   1.817   7.790
   278G11  C0BU18132   1.302   1.926   7.881
   278G11  C0BX18133   1.190   1.949   7.960
   278G11  C0BT18134   1.427   1.985   7.911
   278G11  C0CD18135   1.425   2.074   8.019
   278G11  C0CB18136   1.310   2.107   8.088
   278G11  C0CE18137   1.553   2.121   8.058
   278G11  C0CK18138   1.668   2.092   7.983
   278G11  C0BS18139   1.661   2.007   7.873
   278G11  C0CJ18140   1.779   1.978   7.799
   278G11  C0BP18141   1.772   1.886   7.695
   278G11  C0CI18142   1.878   1.869   7.601
   278G11  C0CH18143   1.871   1.745   7.526
   278G11  H01218144   1.957   1.732   7.462
   278G11  C0BN18145   1.764   1.655   7.529
   278G11  C0CG18146   1.767   1.533   7.462
   278G11  C0CF18147   1.888   1.484   7.408
   278G11  H01318148   1.985   1.530   7.413
   278G11  O00G18149   1.896   1.361   7.346
   278G11  C0AA18150   1.786   1.283   7.332
   278G11  C0A918151   1.796   1.166   7.257
   278G11  H00U18152   1.886   1.126   7.213
   278G11  C0A818153   1.677   1.097   7.232
   278G11  H00V18154   1.690   1.012   7.166
   278G11  C0A718155   1.549   1.129   7.283
   278G11  C0A618156   1.539   1.249   7.367
   278G11  C0A518157   1.420   1.299   7.427
   278G11  C0A418158   1.295   1.223   7.422
   278G11  C0A318159   1.246   1.099   7.379
   278G11  C0A218160   1.308   1.019   7.287
   278G11  C0A118161   1.243   0.907   7.224
   278G11  C0A018162   1.105   0.844   7.230
   278G11  C09Z18163   1.092   0.724   7.156
   278G11  C09Y18164   0.971   0.650   7.158
   278G11  H00Y18165   0.953   0.563   7.096
   278G11  C09X18166   0.869   0.693   7.247
   278G11  C09W18167   0.748   0.613   7.246
   278G11  H00R18168   0.740   0.522   7.188
   278G11  C0AX18169   0.641   0.640   7.327
   278G11  H00S18170   0.556   0.574   7.336
   278G11  C0AW18171   0.648   0.766   7.399
   278G11  H00T18172   0.568   0.800   7.463
   278G11  C0AN18173   0.757   0.853   7.384
   278G11  C0AO18174   0.751   0.981   7.436
   278G11  C0AM18175   0.876   0.815   7.316
   278G11  C0B218176   1.195   0.665   7.077
   278G11  O00D18177   1.186   0.557   7.015
   278G11  C0B118178   1.319   0.733   7.064
   278G11  H00W18179   1.390   0.704   6.988
   278G11  C0AL18180   0.996   0.893   7.307
   278G11  C0AK18181   0.987   1.010   7.380
   278G11  C0B018182   1.341   0.846   7.144
   278G11  C0AZ18183   1.461   0.919   7.158
   278G11  H00X18184   1.549   0.888   7.105
   278G11  C0AJ18185   1.101   1.096   7.402
   278G11  C0AH18186   1.190   1.294   7.470
   278G11  C0AE18187   1.421   1.424   7.499
   278G11  C0AD18188   1.536   1.498   7.512
   278G11  C0AY18189   1.445   1.028   7.248
   278G11  C0AB18190   1.660   1.325   7.387
   278G11  C0AC18191   1.653   1.452   7.455
   278G11  C0BM18192   1.651   1.695   7.594
   278G11  C0CM18193   1.993   1.957   7.611
   278G11  C09M18194   2.023   2.011   7.741
   278G11  C09818195   2.160   2.015   7.786
   278G11  C08R18196   2.228   2.069   7.901
   278G11  C08Q18197   2.369   2.031   7.908
   278G11  C08P18198   2.489   2.090   7.962
   278G11  C08Y18199   2.605   2.061   7.888
   278G11  C09718200   2.598   2.011   7.759
   278G11  C09618201   2.688   2.065   7.677
   278G11  C09018202   2.788   2.114   7.772
   278G11  C09518203   2.898   2.199   7.734
   278G11  C09418204   2.998   2.235   7.827
   278G11  C08J18205   2.977   2.271   7.966
   278G11  C08I18206   3.059   2.378   7.993
   278G11  C08H18207   3.007   2.455   8.108
   278G11  C08G18208   2.869   2.398   8.128
   278G11  C08F18209   2.760   2.403   8.232
   278G11  C08E18210   2.779   2.463   8.359
   278G11  C05918211   2.898   2.513   8.408
   278G11  C05818212   2.906   2.571   8.536
   278G11  C05718213   3.020   2.612   8.604
   278G11  C05618214   3.137   2.608   8.528
   278G11  C05518215   3.144   2.543   8.410
   278G11  C05418216   3.266   2.582   8.351
   278G11  C05318217   3.335   2.677   8.438
   278G11  C05218218   3.454   2.755   8.415
   278G11  C05118219   3.524   2.756   8.288
   278G11  C05U18220   3.476   2.688   8.168
   278G11  C05T18221   3.353   2.619   8.123
   278G11  C06K18222   3.393   2.545   8.007
   278G11  H00J18223   3.334   2.462   7.971
   278G11  C06L18224   3.522   2.584   7.966
   278G11  H00I18225   3.575   2.540   7.882
   278G11  C05V18226   3.568   2.675   8.063
   278G11  C06J18227   3.696   2.730   8.066
   278G11  H00K18228   3.757   2.711   7.979
   278G11  C05X18229   3.740   2.814   8.173
   278G11  C06I18230   3.860   2.897   8.173
   278G11  H00L18231   3.919   2.891   8.082
   278G11  C04Z18232   3.883   2.998   8.271
   278G11  C06H18233   3.989   3.089   8.254
   278G11  H00H18234   4.056   3.080   8.170
   278G11  C04Y18235   4.006   3.197   8.338
   278G11  C06G18236   4.114   3.291   8.319
   278G11  O00918237   4.206   3.269   8.233
   278G11  O00818238   4.101   3.413   8.390
   278G11  C04P18239   4.012   3.430   8.496
   278G11  C04J18240   4.007   3.546   8.585
   278G11  C04Q18241   4.082   3.666   8.573
   278G11  H00E18242   4.156   3.680   8.495
   278G11  C04M18243   4.082   3.767   8.673
   278G11  C04R18244   4.153   3.892   8.668
   278G11  H00F18245   4.211   3.924   8.582
   278G11  C04S18246   4.136   3.984   8.765
   278G11  H00G18247   4.191   4.075   8.750
   278G11  O00718248   4.050   3.969   8.866
   278G11  C03V18249   3.975   3.855   8.876
   278G11  C03U18250   3.887   3.842   8.978
   278G11  O00618251   3.879   3.951   9.060
   278G11  C03F18252   3.800   3.950   9.165
   278G11  C03E18253   3.704   3.842   9.179
   278G11  C03D18254   3.711   3.732   9.097
   278G11  C03C18255   3.622   3.628   9.111
   278G11  C03B18256   3.529   3.647   9.212
   278G11  C03A18257   3.436   3.544   9.229
   278G11  C03918258   3.430   3.428   9.145
   278G11  C03818259   3.316   3.358   9.201
   278G11  C03718260   3.270   3.439   9.309
   278G11  C03618261   3.173   3.394   9.386
   278G11  C02R18262   3.104   3.458   9.485
   278G11  C03518263   2.987   3.383   9.496
   278G11  C03R18264   2.987   3.269   9.420
   278G11  C03S18265   2.866   3.233   9.363
   278G11  C04918266   2.878   3.141   9.258
   278G11  C04818267   3.010   3.122   9.207
   278G11  C03P18268   3.126   3.211   9.237
   278G11  C04718269   3.006   3.026   9.104
   278G11  C04618270   3.110   2.992   9.024
   278G11  C04518271   3.240   3.040   9.012
   278G11  C03T18272   3.298   3.154   9.063
   278G11  C04418273   3.420   3.178   8.995
   278G11  C04318274   3.451   3.058   8.926
   278G11  C04218275   3.529   3.091   8.816
   278G11  C04118276   3.580   3.221   8.850
   278G11  C04018277   3.676   3.299   8.777
   278G11  C03Z18278   3.740   3.422   8.820
   278G11  C04H18279   3.842   3.436   8.718
   278G11  C04G18280   3.838   3.334   8.627
   278G11  C03N18281   3.725   3.526   8.919
   278G11  C03Y18282   3.815   3.629   8.904
   278G11  C03X18283   3.907   3.642   8.796
   278G11  C04F18284   3.745   3.244   8.659
   278G11  C04E18285   3.727   3.127   8.575
   278G11  C04O18286   3.813   3.113   8.466
   278G11  C04D18287   3.630   3.030   8.587
   278G11  C04V18288   3.604   2.934   8.488
   278G11  C04W18289   3.687   2.919   8.376
   278G11  C04C18290   3.550   3.004   8.697
   278G11  C04L18291   3.470   2.884   8.658
   278G11  C04U18292   3.368   2.821   8.731
   278G11  C05Q18293   3.263   2.747   8.673
   278G11  C05P18294   3.154   2.746   8.750
   278G11  C04T18295   3.167   2.833   8.859
   278G11  C04B18296   3.298   2.880   8.844
   278G11  C03M18297   3.515   3.284   8.966
   278G11  C04A18298   3.334   2.985   8.922
   278G11  C05H18299   3.073   2.881   8.952
   278G11  C05G18300   2.940   2.852   8.977
   278G11  C05F18301   2.863   2.762   8.911
   278G11  C05E18302   2.724   2.753   8.916
   278G11  C05L18303   2.614   2.805   8.996
   278G11  C05K18304   2.637   2.900   9.101
   278G11  C05J18305   2.759   2.968   9.135
   278G11  C06618306   2.512   2.933   9.162
   278G11  C06518307   2.389   2.874   9.135
   278G11  C06418308   2.375   2.784   9.031
   278G11  C06N18309   2.278   2.910   9.211
   278G11  C06918310   2.286   3.011   9.308
   278G11  C06P18311   2.173   3.049   9.377
   278G11  C06R18312   2.176   3.153   9.472
   278G11  C06B18313   2.293   3.207   9.507
   278G11  C06S18314   2.298   3.314   9.605
   278G11  C02G18315   2.420   3.374   9.633
   278G11  C02F18316   2.433   3.471   9.738
   278G11  C02718317   2.317   3.512   9.798
   278G11  C02618318   2.319   3.623   9.883
   278G11  C00E18319   2.202   3.677   9.924
   278G11  C00D18320   2.213   3.793   9.997
   278G11  C00C18321   2.100   3.859  10.022
   278G11  C00B18322   1.972   3.826   9.980
   278G11  C01518323   1.964   3.710   9.905
   278G11  C07F18324   1.844   3.674   9.843
   278G11  C07E18325   1.843   3.558   9.777
   278G11  C06W18326   1.955   3.483   9.757
   278G11  C06V18327   2.080   3.530   9.798
   278G11  C06X18328   1.948   3.373   9.673
   278G11  C07B18329   1.829   3.328   9.622
   278G11  C07C18330   1.710   3.402   9.646
   278G11  C0FU18331   1.591   3.367   9.581
   278G11  C0F718332   1.476   3.443   9.600
   278G11  C0F618333   1.358   3.396   9.545
   278G11  C0F818334   1.245   3.467   9.565
   278G11  C0F918335   1.124   3.418   9.523
   278G11  C0FA18336   1.008   3.488   9.551
   278G11  C0FZ18337   1.016   3.610   9.614
   278G11  C0G018338   0.902   3.689   9.631
   278G11  C0GD18339   0.774   3.636   9.608
   278G11  C0FC18340   0.766   3.505   9.562
   278G11  C0GH18341   0.640   3.436   9.559
   278G11  C0EY18342   0.632   3.305   9.523
   278G11  C0EX18343   0.512   3.235   9.521
   278G11  C0EW18344   0.507   3.103   9.475
   278G11  C0FR18345   0.387   3.031   9.486
   278G11  H01D18346   0.381   2.927   9.457
   278G11  C0FS18347   0.267   3.085   9.542
   278G11  H01C18348   0.172   3.034   9.531
   278G11  C0GJ18349   0.278   3.214   9.587
   278G11  H01N18350   0.189   3.253   9.636
   278G11  C0EV18351   0.621   3.043   9.418
   278G11  C0FT18352   0.616   2.911   9.363
   278G11  H01E18353   0.530   2.846   9.360
   278G11  C0EU18354   0.738   3.113   9.416
   278G11  C0ET18355   0.855   3.065   9.371
   278G11  C0EI18356   0.981   3.119   9.372
   278G11  C0F118357   0.987   3.238   9.442
   278G11  C0F018358   0.869   3.304   9.481
   278G11  C0EH18359   1.095   3.056   9.316
   278G11  C0EG18360   1.083   2.937   9.234
   278G11  C0EJ18361   1.220   3.113   9.348
   278G11  C0F318362   1.226   3.231   9.420
   278G11  C0EK18363   1.337   3.046   9.311
   278G11  C0EL18364   1.332   2.926   9.235
   278G11  C0EM18365   1.464   2.871   9.215
   278G11  C0EN18366   1.577   2.921   9.275
   278G11  C07I18367   1.690   2.849   9.244
   278G11  C07418368   1.811   2.896   9.288
   278G11  C07318369   1.918   2.838   9.225
   278G11  C07218370   2.044   2.883   9.255
   278G11  C07518371   1.815   3.002   9.368
   278G11  C07618372   1.700   3.069   9.407
   278G11  C07818373   1.701   3.176   9.492
   278G11  C07G18374   1.938   3.041   9.406
   278G11  C07018375   1.944   3.152   9.497
   278G11  C07Z18376   1.662   2.755   9.153
   278G11  C07718377   1.576   3.033   9.359
   278G11  C0EO18378   1.454   3.091   9.373
   278G11  C0F418379   1.463   3.203   9.456
   278G11  C0EQ18380   0.846   2.950   9.299
   278G11  C0FQ18381   0.392   3.296   9.569
   278G11  C0GI18382   0.404   3.433   9.597
   278G11  H01L18383   0.315   3.482   9.634
   278G11  C0EZ18384   0.748   3.240   9.468
   278G11  C0GG18385   0.524   3.506   9.587
   278G11  C0GF18386   0.532   3.641   9.624
   278G11  H01M18387   0.437   3.692   9.632
   278G11  C0GE18388   0.651   3.704   9.633
   278G11  H01K18389   0.657   3.810   9.649
   278G11  O00J18390   0.911   3.814   9.675
   278G11  C0GA18391   1.029   3.863   9.727
   278G11  C0G918392   1.036   3.986   9.790
   278G11  H01H18393   0.940   4.036   9.797
   278G11  C0G818394   1.158   4.040   9.835
   278G11  C0G718395   1.171   4.167   9.904
   278G11  H01I18396   1.081   4.220   9.934
   278G11  O00I18397   1.289   4.220   9.949
   278G11  C0G618398   1.394   4.137   9.929
   278G11  H01J18399   1.485   4.195   9.932
   278G11  C02D18400   1.395   4.007   9.879
   278G11  C02C18401   1.505   3.923   9.881
   278G11  C01718402   1.630   3.961   9.939
   278G11  C01618403   1.742   3.875   9.929
   278G11  O00118404   1.641   4.071  10.023
   278G11  C01818405   1.762   4.120  10.071
   278G11  C00918406   1.875   4.035  10.065
   278G11  C00818407   2.006   4.073  10.114
   278G11  C00718408   2.067   4.184  10.176
   278G11  C00618409   2.007   4.306  10.197
   278G11  C00518410   2.070   4.416  10.267
   278G11  C00418411   2.208   4.447  10.291
   278G11  C00318412   2.326   4.378  10.248
   278G11  C00218413   2.453   4.443  10.263
   278G11  C00P18414   2.573   4.382  10.210
   278G11  C00O18415   2.691   4.458  10.195
   278G11  C00N18416   2.805   4.405  10.130
   278G11  C01018417   2.917   4.480  10.109
   278G11  C01118418   3.032   4.426  10.050
   278G11  C01Q18419   3.144   4.507  10.031
   278G11  C01U18420   3.141   4.643  10.065
   278G11  C01218421   3.025   4.693  10.126
   278G11  H00018422   3.019   4.793  10.167
   278G11  C01V18423   3.249   4.722  10.024
   278G11  H00718424   3.236   4.829  10.021
   278G11  O00518425   3.368   4.676   9.964
   278G11  C01W18426   3.362   4.543   9.933
   278G11  C03118427   3.479   4.490   9.878
   278G11  C03218428   3.491   4.353   9.857
   278G11  H00A18429   3.582   4.322   9.808
   278G11  C03318430   3.388   4.270   9.888
   278G11  H00B18431   3.398   4.164   9.872
   278G11  C01O18432   3.261   4.323   9.930
   278G11  C01N18433   3.150   4.247   9.941
   278G11  C01M18434   3.143   4.106   9.885
   278G11  C01L18435   3.210   4.016   9.786
   278G11  C01K18436   3.131   3.900   9.800
   278G11  C01Y18437   3.128   3.800   9.705
   278G11  C02I18438   3.214   3.799   9.600
   278G11  C02N18439   3.214   3.685   9.515
   278G11  C02M18440   3.323   3.671   9.424
   278G11  C02L18441   3.421   3.768   9.404
   278G11  C02K18442   3.408   3.887   9.484
   278G11  C02U18443   3.494   3.991   9.449
   278G11  C02V18444   3.606   3.969   9.363
   278G11  C03H18445   3.716   4.063   9.359
   278G11  H00C18446   3.726   4.140   9.434
   278G11  C02W18447   3.468   4.118   9.501
   278G11  C02X18448   3.359   4.130   9.594
   278G11  C02Y18449   3.350   4.272   9.607
   278G11  H00818450   3.278   4.331   9.662
   278G11  C02Z18451   3.472   4.334   9.542
   278G11  O00418452   3.523   4.446   9.547
   278G11  O00318453   3.530   4.235   9.472
   278G11  C02J18454   3.304   3.905   9.582
   278G11  C01Z18455   3.018   3.715   9.720
   278G11  C02018456   2.921   3.726   9.818
   278G11  C01I18457   2.918   3.830   9.899
   278G11  C01H18458   2.802   3.884   9.965
   278G11  C00K18459   2.808   4.010  10.018
   278G11  C01S18460   2.923   4.086  10.009
   278G11  C01418461   2.920   4.216  10.037
   278G11  C00J18462   2.690   4.064  10.064
   278G11  C00I18463   2.572   3.994  10.065
   278G11  C00H18464   2.572   3.862  10.016
   278G11  C00G18465   2.456   3.792   9.995
   278G11  C00S18466   2.456   4.050  10.110
   278G11  C00T18467   2.344   3.976  10.093
   278G11  C00U18468   2.224   4.035  10.126
   278G11  C00R18469   2.455   4.182  10.162
   278G11  C00L18470   2.691   4.194  10.113
   278G11  C02818471   2.687   3.807   9.963
   278G11  C02318472   2.684   3.699   9.883
   278G11  C02418473   2.564   3.634   9.854
   278G11  C02118474   2.795   3.663   9.805
   278G11  C02218475   2.785   3.564   9.714
   278G11  C02H18476   2.665   3.495   9.696
   278G11  C03018477   2.650   3.398   9.596
   278G11  C03418478   2.759   3.364   9.523
   278G11  C02P18479   2.889   3.537   9.630
   278G11  C02B18480   3.006   3.614   9.625
   278G11  C01J18481   3.035   3.910   9.898
   278G11  C01X18482   3.288   4.028   9.662
   278G11  C01T18483   3.033   4.034   9.943
   278G11  H00918484   3.564   4.553   9.855
   278G11  C01P18485   3.255   4.455   9.965
   278G11  C01R18486   3.035   4.294  10.008
   278G11  C00Z18487   2.916   4.615  10.152
   278G11  O00018488   2.808   4.666  10.222
   278G11  C00M18489   2.809   4.272  10.096
   278G11  C00Y18490   2.699   4.590  10.232
   278G11  C01318491   2.587   4.641  10.295
   278G11  H00118492   2.594   4.739  10.341
   278G11  C00Q18493   2.573   4.254  10.159
   278G11  C00118494   2.463   4.573  10.312
   278G11  C00018495   2.344   4.635  10.362
   278G11  H00618496   2.355   4.730  10.412
   278G11  C00W18497   2.333   4.247  10.194
   278G11  C01G18498   2.222   4.566  10.364
   278G11  H00518499   2.140   4.609  10.419
   278G11  C01C18500   1.953   4.499  10.305
   278G11  H00218501   1.959   4.601  10.338
   278G11  C01B18502   1.835   4.445  10.253
   278G11  C01D18503   1.704   4.496  10.254
   278G11  H00318504   1.692   4.576  10.326
   278G11  C01E18505   1.609   4.425  10.198
   278G11  H00418506   1.510   4.467  10.206
   278G11  O00218507   1.630   4.307  10.140
   278G11  C01A18508   1.863   4.322  10.193
   278G11  C00V18509   2.213   4.169  10.172
   278G11  C01918510   1.756   4.249  10.130
   278G11  C02E18511   1.498   3.799   9.819
   278G11  C0FX18512   1.381   3.759   9.762
   278G11  C0FW18513   1.368   3.635   9.691
   278G11  C0GB18514   1.264   3.834   9.769
   278G11  C0G318515   1.607   3.714   9.809
   278G11  C07H18516   1.601   3.595   9.739
   278G11  C0GC18517   1.272   3.959   9.827
   278G11  C0G218518   1.143   3.785   9.724
   278G11  C0G118519   1.139   3.662   9.659
   278G11  C0FB18520   0.880   3.431   9.532
   278G11  C0F218521   1.113   3.296   9.463
   278G11  C0FY18522   1.253   3.589   9.635
   278G11  C0F518523   1.348   3.281   9.468
   278G11  C0FV18524   1.480   3.561   9.672
   278G11  C07918525   1.581   3.248   9.513
   278G11  C07A18526   1.824   3.219   9.537
   278G11  C06Y18527   2.063   3.306   9.622
   278G11  C07D18528   1.721   3.518   9.721
   278G11  C01F18529   1.729   3.754   9.859
   278G11  C00A18530   1.863   3.912   9.997
   278G11  C00X18531   2.105   3.975  10.096
   278G11  C00F18532   2.335   3.851  10.033
   278G11  C02918533   2.081   3.638   9.883
   278G11  C02518534   2.447   3.677   9.920
   278G11  C06U18535   2.196   3.466   9.754
   278G11  C02A18536   2.553   3.530   9.765
   278G11  C05Y18537   2.534   3.337   9.561
   278G11  C05Z18538   2.527   3.233   9.466
   278G11  C06018539   2.641   3.194   9.398
   278G11  C06218540   2.642   3.093   9.300
   278G11  C06T18541   2.187   3.361   9.665
   278G11  C06A18542   2.409   3.164   9.442
   278G11  C06Z18543   2.063   3.203   9.535
   278G11  C06Q18544   2.053   2.983   9.350
   278G11  C06818545   2.408   3.063   9.344
   278G11  C06718546   2.522   3.028   9.268
   278G11  C06318547   2.486   2.757   8.957
   278G11  C06C18548   2.465   2.669   8.845
   278G11  C06D18549   2.565   2.631   8.766
   278G11  C06E18550   2.559   2.549   8.652
   278G11  C07Q18551   2.440   2.506   8.614
   278G11  C07P18552   2.333   2.526   8.704
   278G11  C07T18553   2.216   2.470   8.677
   278G11  C07U18554   2.102   2.494   8.757
   278G11  C07V18555   1.973   2.445   8.716
   278G11  C08418556   1.962   2.384   8.593
   278G11  C08C18557   2.073   2.369   8.516
   278G11  C08B18558   2.057   2.314   8.390
   278G11  C08A18559   2.171   2.301   8.315
   278G11  C08918560   2.299   2.328   8.346
   278G11  C08818561   2.401   2.306   8.256
   278G11  C08718562   2.530   2.351   8.292
   278G11  C08618563   2.547   2.412   8.413
   278G11  C08X18564   2.384   2.240   8.136
   278G11  C08T18565   2.250   2.222   8.093
   278G11  C08D18566   2.312   2.380   8.469
   278G11  C08U18567   2.153   2.250   8.189
   278G11  C08V18568   2.033   2.213   8.136
   278G11  C0CY18569   1.917   2.238   8.211
   278G11  C0CX18570   1.793   2.197   8.156
   278G11  C0CW18571   1.677   2.222   8.230
   278G11  C0CV18572   1.693   2.273   8.358
   278G11  C0D418573   1.822   2.300   8.412
   278G11  C0CU18574   1.582   2.292   8.434
   278G11  C0CT18575   1.455   2.271   8.382
   278G11  C0CS18576   1.445   2.215   8.256
   278G11  C0D618577   1.604   2.341   8.561
   278G11  C0EC18578   1.725   2.367   8.618
   278G11  C07X18579   1.737   2.427   8.747
   278G11  C0DL18580   1.491   2.363   8.639
   278G11  C0DK18581   1.505   2.427   8.763
   278G11  C0DN18582   1.376   2.466   8.796
   278G11  C0D818583   1.358   2.357   8.590
   278G11  C08W18584   2.034   2.168   8.002
   278G11  C0CQ18585   1.911   2.114   7.949
   278G11  C09318586   1.935   2.285   8.339
   278G11  C09218587   1.836   2.351   8.541
   278G11  C08518588   2.200   2.404   8.554
   278G11  C07S18589   2.434   2.428   8.502
   278G11  C06F18590   2.674   2.533   8.569
   278G11  C07O18591   2.349   2.607   8.819
   278G11  C07N18592   2.239   2.634   8.898
   278G11  C05D18593   2.689   2.682   8.805
   278G11  C05C18594   2.794   2.654   8.729
   278G11  C05N18595   2.907   2.696   8.791
   278G11  C05M18596   2.892   2.947   9.073
   278G11  C05I18597   2.760   3.071   9.229
   278G11  C06118598   2.756   3.257   9.431
   278G11  C02Q18599   2.875   3.433   9.552
   278G11  C02O18600   3.113   3.592   9.541
   278G11  C03Q18601   3.102   3.286   9.348
   278G11  C03O18602   3.248   3.234   9.162
   278G11  C03L18603   3.525   3.411   9.034
   278G11  C02S18604   3.340   3.555   9.331
   278G11  C02T18605   3.516   3.757   9.300
   278G11  C03K18606   3.626   3.518   9.020
   278G11  C03I18607   3.611   3.854   9.282
   278G11  C03G18608   3.812   4.050   9.258
   278G11  H00D18609   3.892   4.121   9.245
   278G11  C03J18610   3.806   3.730   8.996
   278G11  C03W18611   3.989   3.753   8.778
   278G11  C04I18612   3.925   3.545   8.700
   278G11  C04K18613   3.927   3.331   8.520
   278G11  C04N18614   3.917   3.214   8.442
   278G11  C04X18615   3.794   3.006   8.376
   278G11  C05018616   3.648   2.824   8.280
   278G11  C05W18617   3.504   2.845   8.518
   278G11  C05S18618   3.237   2.580   8.211
   278G11  C05R18619   3.252   2.684   8.553
   278G11  C05O18620   3.027   2.679   8.727
   278G11  C05B18621   2.790   2.582   8.609
   278G11  C05A18622   3.023   2.529   8.332
   278G11  C07R18623   2.668   2.473   8.443
   278G11  C08N18624   2.636   2.331   8.207
   278G11  C08M18625   2.625   2.249   8.092
   278G11  C08L18626   2.731   2.232   8.002
   278G11  C09118627   3.090   2.526   8.205
   278G11  C09K18628   3.102   2.434   7.862
   278G11  H00M18629   3.137   2.536   7.856
   278G11  C08K18630   2.854   2.294   8.031
   278G11  C09J18631   3.082   2.334   7.764
   278G11  C09I18632   3.048   2.332   7.620
   278G11  C09L18633   3.125   2.379   7.507
   278G11  H00N18634   3.219   2.432   7.508
   278G11  C09Q18635   3.074   2.344   7.387
   278G11  H00O18636   3.111   2.382   7.293
   278G11  O00B18637   2.950   2.279   7.361
   278G11  C09G18638   2.879   2.214   7.471
   278G11  C09F18639   2.754   2.144   7.443
   278G11  O00A18640   2.728   2.145   7.309
   278G11  C09P18641   2.633   2.062   7.267
   278G11  H00P18642   2.666   1.969   7.223
   278G11  C09O18643   2.510   2.054   7.349
   278G11  C09D18644   2.536   2.037   7.488
   278G11  C09C18645   2.444   1.983   7.590
   278G11  C09N18646   2.298   1.966   7.589
   278G11  C09T18647   2.219   1.985   7.480
   278G11  C09S18648   2.255   2.017   7.346
   278G11  C0CP18649   2.136   1.998   7.282
   278G11  C0CN18650   2.023   1.988   7.363
   278G11  C0CO18651   1.897   1.982   7.304
   278G11  H01418652   1.810   1.954   7.361
   278G11  C0CZ18653   1.896   2.010   7.167
   278G11  H01518654   1.799   2.008   7.118
   278G11  C0D018655   2.011   2.048   7.089
   278G11  C0G518656   2.011   2.071   6.949
   278G11  H01F18657   1.919   2.054   6.895
   278G11  C0G418658   2.125   2.099   6.881
   278G11  H01G18659   2.124   2.127   6.777
   278G11  O00H18660   2.244   2.108   6.941
   278G11  C0D218661   2.247   2.077   7.079
   278G11  C09V18662   2.369   2.085   7.148
   278G11  H00Q18663   2.453   2.130   7.098
   278G11  C0D118664   2.133   2.040   7.147
   278G11  C09R18665   2.381   2.049   7.285
   278G11  C09H18666   2.934   2.243   7.598
   278G11  C09E18667   2.667   2.080   7.534
   278G11  C09B18668   2.484   1.959   7.717
   278G11  C08Z18669   2.716   2.143   7.891
   278G11  C08O18670   2.494   2.194   8.061
   278G11  C09A18671   2.376   1.941   7.804
   278G11  C08S18672   2.175   2.167   7.979
   278G11  C09918673   2.260   1.941   7.725
   278G11  C09U18674   2.075   1.976   7.494
   278G11  C0BO18675   1.651   1.811   7.676
   278G11  C0CL18676   1.907   2.040   7.827
   278G11  C0D318677   1.793   2.136   8.031
   278G11  C0D518678   1.556   2.187   8.180
   278G11  C0BR18679   1.538   1.953   7.838
   278G11  C0BQ18680   1.539   1.848   7.745
   278G11  C0BL18681   1.531   1.621   7.582
   278G11  C0AF18682   1.301   1.480   7.552
   278G11  C0BH18683   1.179   1.742   7.775
   278G11  C0BG18684   1.065   1.779   7.848
   278G11  C0BD18685   0.937   1.608   7.726
   278G11  C0AG18686   1.182   1.421   7.531
   278G11  C0AI18687   1.076   1.220   7.455
   278G11  C0AV18688   0.864   1.063   7.430
   278G11  C0BB18689   0.710   1.371   7.560
   278G11  O00C18690   0.642   1.023   7.526
   278G11  C0BC18691   0.589   1.385   7.618
   278G11  C0B918692   0.816   1.538   7.700
   278G11  O00E18693   0.606   1.680   7.964
   278G11  C0CA18694   0.596   1.779   8.050
   278G11  O00F18695   0.493   1.806   8.116
   278G11  C0BF18696   0.946   1.708   7.825
   278G11  C0C518697   0.712   1.856   8.062
   278G11  C0C418698   0.712   1.959   8.161
   278G11  H01118699   0.623   1.982   8.218
   278G11  C0C818700   1.071   1.876   7.944
   278G11  C0C218701   0.835   2.034   8.171
   278G11  C0C318702   0.854   2.133   8.277
   278G11  C0DY18703   0.755   2.198   8.350
   278G11  H01618704   0.648   2.188   8.349
   278G11  C0DX18705   0.824   2.297   8.433
   278G11  C0DW18706   0.754   2.422   8.457
   278G11  C0BY18707   1.191   2.047   8.059
   278G11  C0DB18708   0.970   2.195   8.311
   278G11  C0CC18709   1.319   2.177   8.209
   278G11  C0D718710   1.337   2.311   8.453
   278G11  C0DZ18711   0.963   2.283   8.415
   278G11  C0DM18712   1.284   2.427   8.690
   278G11  C0DQ18713   0.936   2.504   8.618
   278G11  C0DV18714   0.808   2.504   8.559
   278G11  C0E018715   0.611   2.463   8.445
   278G11  C0FO18716   0.422   2.538   8.721
   278G11  C0E318717   0.490   2.380   8.444
   278G11  H01718718   0.486   2.278   8.411
   278G11  C0GV18719   0.315   2.451   8.723
   278G11  C0ES18720   0.489   2.566   8.843
   278G11  C0GQ18721   0.257   2.399   9.075
   278G11  C0FJ18722   0.491   2.528   9.334
   278G11  C0ED18723   0.617   2.617   9.093
   278G11  C0ER18724   0.736   2.870   9.298
   278G11  C0EP18725   0.949   2.888   9.223
   278G11  C0E618726   0.830   2.659   8.947
   278G11  C0DE18727   1.143   2.650   8.881
   278G11  C0EA18728   1.202   2.884   9.178
   278G11  C0DF18729   1.285   2.680   8.882
   278G11  C08018730   1.523   2.765   9.138
   278G11  C0DO18731   1.381   2.574   8.879
   278G11  C0DJ18732   1.632   2.465   8.818
   278G11  C07K18733   1.774   2.699   9.080
   278G11  C07W18734   1.861   2.469   8.796
   278G11  C08318735   2.115   2.576   8.871
   278G11  C07J18736   1.898   2.746   9.122
   278G11  C06O18737   2.155   2.843   9.188
   278G11  C06M18738   2.250   2.729   9.002
   288G11  C07118739   4.360  10.376  10.797
   288G11  C07L18740   4.410  10.258  10.734
   288G11  C07M18741   4.385  10.233  10.600
   288G11  C07Y18742   4.411  10.106  10.540
   288G11  C08118743   4.475  10.002  10.616
   288G11  C08218744   4.490   9.875  10.553
   288G11  C0DI18745   4.558   9.753  10.593
   288G11  C0DH18746   4.633   9.717  10.709
   288G11  C0DG18747   4.697   9.592  10.699
   288G11  C0E918748   4.698   9.486  10.794
   288G11  C0E818749   4.697   9.368  10.699
   288G11  C0E718750   4.746   9.233  10.724
   288G11  C0EB18751   4.818   9.197  10.843
   288G11  C0EF18752   4.927   9.102  10.865
   288G11  C0EE18753   5.015   9.028  10.782
   288G11  C0FD18754   5.156   9.010  10.811
   288G11  C0FE18755   5.230   9.073  10.912
   288G11  H01B18756   5.182   9.150  10.970
   288G11  C0FF18757   5.367   9.046  10.931
   288G11  H01A18758   5.417   9.097  11.011
   288G11  C0FG18759   5.436   8.962  10.844
   288G11  H01818760   5.542   8.948  10.856
   288G11  C0FH18761   5.360   8.885  10.748
   288G11  C0FI18762   5.422   8.799  10.657
   288G11  H01918763   5.522   8.768  10.683
   288G11  O00K18764   5.364   8.753  10.538
   288G11  C0FL18765   5.223   8.757  10.538
   288G11  C0FK18766   5.150   8.849  10.625
   288G11  C0FM18767   5.012   8.859  10.603
   288G11  C0FN18768   4.945   8.773  10.512
   288G11  C0FP18769   5.019   8.681  10.439
   288G11  C0GO18770   4.969   8.598  10.340
   288G11  C0GN18771   5.037   8.521  10.247
   288G11  C0GR18772   5.177   8.510  10.267
   288G11  C0GS18773   5.251   8.431  10.185
   288G11  H01Q18774   5.356   8.411  10.201
   288G11  C0GT18775   5.188   8.362  10.084
   288G11  H01O18776   5.237   8.296  10.014
   288G11  C0GU18777   5.051   8.375  10.062
   288G11  H01P18778   5.016   8.317   9.978
   288G11  O00L18779   5.232   8.575  10.377
   288G11  C0GM18780   4.971   8.463  10.139
   288G11  C0GL18781   4.831   8.488  10.115
   288G11  H01R18782   4.772   8.441  10.037
   288G11  C0GK18783   4.761   8.563  10.210
   288G11  C0GP18784   4.629   8.622  10.212
   288G11  C0E218785   4.615   8.677  10.347
   288G11  C0E118786   4.528   8.790  10.336
   288G11  C0DU18787   4.550   8.925  10.385
   288G11  C0DT18788   4.639   8.971  10.482
   288G11  C0E418789   4.754   8.907  10.528
   288G11  C0E518790   4.813   8.996  10.621
   288G11  C0DS18791   4.646   9.102  10.521
   288G11  C0DR18792   4.566   9.192  10.445
   288G11  C0DD18793   4.574   9.332  10.455
   288G11  C0DC18794   4.491   9.375  10.335
   288G11  C0DP18795   4.442   9.268  10.249
   288G11  C0DA18796   4.358   9.273  10.125
   288G11  C0D918797   4.300   9.398  10.055
   288G11  C0CR18798   4.232   9.377   9.930
   288G11  C0C018799   4.212   9.250   9.873
   288G11  C0BZ18800   4.137   9.216   9.758
   288G11  C0C118801   4.110   9.085   9.718
   288G11  C0C718802   4.036   9.059   9.602
   288G11  C0C618803   4.009   8.927   9.563
   288G11  C0C918804   3.929   8.903   9.450
   288G11  C0B818805   3.897   8.773   9.415
   288G11  C0B718806   3.821   8.740   9.300
   288G11  C0B618807   3.755   8.615   9.254
   288G11  C0B518808   3.685   8.524   9.343
   288G11  H00Z18809   3.697   8.517   9.450
   288G11  C0B418810   3.572   8.477   9.266
   288G11  H01018811   3.483   8.427   9.303
   288G11  C0B318812   3.577   8.524   9.137
   288G11  C0AP18813   3.495   8.581   9.027
   288G11  C0AQ18814   3.571   8.691   8.980
   288G11  C0AR18815   3.512   8.797   8.909
   288G11  C0AS18816   3.578   8.915   8.929
   288G11  C0AT18817   3.670   8.941   9.029
   288G11  C0BA18818   3.723   8.836   9.094
   288G11  C0AU18819   3.696   9.071   9.071
   288G11  C0BE18820   3.770   9.091   9.182
   288G11  C0BI18821   3.786   9.223   9.229
   288G11  C0BJ18822   3.727   9.330   9.162
   288G11  C0BK18823   3.737   9.458   9.208
   288G11  C0BW18824   3.820   9.485   9.316
   288G11  C0BV18825   3.880   9.384   9.382
   288G11  C0BU18826   3.959   9.404   9.496
   288G11  C0BX18827   4.010   9.296   9.565
   288G11  C0BT18828   3.987   9.537   9.535
   288G11  C0CD18829   4.059   9.565   9.649
   288G11  C0CB18830   4.102   9.454   9.732
   288G11  C0CE18831   4.084   9.693   9.694
   288G11  C0CK18832   4.036   9.800   9.618
   288G11  C0BS18833   3.964   9.776   9.497
   288G11  C0CJ18834   3.906   9.885   9.421
   288G11  C0BP18835   3.822   9.857   9.314
   288G11  C0CI18836   3.766   9.960   9.247
   288G11  C0CH18837   3.653   9.924   9.168
   288G11  H01218838   3.588  10.003   9.134
   288G11  C0BN18839   3.637   9.797   9.116
   288G11  C0CG18840   3.552   9.770   9.010
   288G11  C0CF18841   3.482   9.881   8.943
   288G11  H01318842   3.511   9.983   8.964
   288G11  O00G18843   3.407   9.857   8.831
   288G11  C0AA18844   3.362   9.729   8.809
   288G11  C0A918845   3.258   9.711   8.716
   288G11  H00U18846   3.203   9.793   8.672
   288G11  C0A818847   3.204   9.580   8.702
   288G11  H00V18848   3.115   9.575   8.641
   288G11  C0A718849   3.267   9.463   8.748
   288G11  C0A618850   3.381   9.478   8.840
   288G11  C0A518851   3.462   9.378   8.896
   288G11  C0A418852   3.442   9.237   8.864
   288G11  C0A318853   3.354   9.155   8.782
   288G11  C0A218854   3.234   9.200   8.729
   288G11  C0A118855   3.143   9.117   8.664
   288G11  C0A018856   3.124   8.969   8.653
   288G11  C09Z18857   3.010   8.927   8.579
   288G11  C09Y18858   2.967   8.791   8.574
   288G11  H00Y18859   2.880   8.761   8.518
   288G11  C09X18860   3.026   8.702   8.669
   288G11  C09W18861   2.959   8.578   8.689
   288G11  H00R18862   2.866   8.564   8.636
   288G11  C0AX18863   3.015   8.482   8.770
   288G11  H00S18864   2.961   8.389   8.780
   288G11  C0AW18865   3.134   8.511   8.833
   288G11  H00T18866   3.181   8.438   8.897
   288G11  C0AN18867   3.197   8.636   8.821
   288G11  C0AO18868   3.322   8.658   8.883
   288G11  C0AM18869   3.144   8.735   8.738
   288G11  C0B218870   2.930   9.016   8.500
   288G11  O00D18871   2.836   8.975   8.431
   288G11  C0B118872   2.957   9.156   8.500
   288G11  H00W18873   2.884   9.224   8.459
   288G11  C0AL18874   3.198   8.870   8.729
   288G11  C0AK18875   3.324   8.891   8.791
   288G11  C0B018876   3.054   9.200   8.586
   288G11  C0AZ18877   3.082   9.336   8.624
   288G11  H00X18878   3.023   9.417   8.583
   288G11  C0AJ18879   3.386   9.019   8.805
   288G11  C0AH18880   3.529   9.151   8.923
   288G11  C0AE18881   3.559   9.407   8.995
   288G11  C0AD18882   3.583   9.537   9.039
   288G11  C0AY18883   3.199   9.339   8.706
   288G11  C0AB18884   3.422   9.612   8.871
   288G11  C0AC18885   3.515   9.639   8.975
   288G11  C0BM18886   3.701   9.694   9.178
   288G11  C0CM18887   3.832  10.082   9.249
   288G11  C09M18888   3.911  10.124   9.362
   288G11  C09818889   3.950  10.263   9.369
   288G11  C08R18890   3.984  10.349   9.485
   288G11  C08Q18891   3.994  10.485   9.458
   288G11  C08P18892   3.960  10.605   9.533
   288G11  C08Y18893   3.922  10.723   9.461
   288G11  C09718894   3.870  10.702   9.332
   288G11  C09618895   3.750  10.767   9.315
   288G11  C09018896   3.753  10.868   9.417
   288G11  C09518897   3.644  10.954   9.446
   288G11  C09418898   3.641  11.060   9.551
   288G11  C08J18899   3.717  11.072   9.672
   288G11  C08I18900   3.629  11.105   9.781
   288G11  C08H18901   3.693  11.067   9.908
   288G11  C08G18902   3.791  10.968   9.871
   288G11  C08F18903   3.891  10.895   9.941
   288G11  C08E18904   3.936  10.925  10.076
   288G11  C05918905   3.914  11.050  10.140
   288G11  C05818906   3.971  11.080  10.263
   288G11  C05718907   3.945  11.193  10.343
   288G11  C05618908   3.844  11.280  10.293
   288G11  C05518909   3.815  11.281  10.157
   288G11  C05418910   3.692  11.352  10.153
   288G11  C05318911   3.653  11.402  10.288
   288G11  C05218912   3.528  11.448  10.341
   288G11  C05118913   3.410  11.451  10.253
   288G11  C05U18914   3.398  11.399  10.117
   288G11  C05T18915   3.490  11.329  10.027
   288G11  C06K18916   3.429  11.325   9.902
   288G11  H00J18917   3.488  11.320   9.812
   288G11  C06L18918   3.293  11.351   9.917
   288G11  H00I18919   3.227  11.339   9.833
   288G11  C05V18920   3.275  11.402  10.050
   288G11  C06J18921   3.161  11.461  10.100
   288G11  H00K18922   3.066  11.464  10.047
   288G11  C05X18923   3.165  11.516  10.225
   288G11  C06I18924   3.057  11.581  10.285
   288G11  H00L18925   2.968  11.586  10.223
   288G11  C04Z18926   3.047  11.627  10.417
   288G11  C06H18927   2.924  11.680  10.471
   288G11  H00H18928   2.840  11.692  10.405
   288G11  C04Y18929   2.917  11.700  10.612
   288G11  C06G18930   2.793  11.749  10.669
   288G11  O00918931   2.691  11.758  10.604
   288G11  O00818932   2.795  11.777  10.808
   288G11  C04P18933   2.910  11.760  10.882
   288G11  C04J18934   2.911  11.784  11.024
   288G11  C04Q18935   2.800  11.818  11.108
   288G11  H00E18936   2.705  11.821  11.056
   288G11  C04M18937   2.803  11.854  11.243
   288G11  C04R18938   2.692  11.907  11.324
   288G11  H00F18939   2.595  11.928  11.280
   288G11  C04S18940   2.717  11.930  11.454
   288G11  H00G18941   2.643  11.981  11.515
   288G11  O00718942   2.838  11.905  11.515
   288G11  C03V18943   2.937  11.844  11.440
   288G11  C03U18944   3.050  11.807  11.508
   288G11  O00618945   3.056  11.825  11.644
   288G11  C03F18946   3.149  11.747  11.712
   288G11  C03E18947   3.256  11.683  11.645
   288G11  C03D18948   3.270  11.694  11.505
   288G11  C03C18949   3.375  11.629  11.443
   288G11  C03B18950   3.476  11.566  11.523
   288G11  C03A18951   3.586  11.501  11.462
   288G11  C03918952   3.599  11.494  11.320
   288G11  C03818953   3.715  11.406  11.301
   288G11  C03718954   3.751  11.375  11.437
   288G11  C03618955   3.862  11.305  11.461
   288G11  C02R18956   3.906  11.247  11.577
   288G11  C03518957   4.013  11.162  11.541
   288G11  C03R18958   4.020  11.157  11.403
   288G11  C03S18959   4.078  11.057  11.325
   288G11  C04918960   4.047  11.053  11.191
   288G11  C04818961   3.964  11.155  11.141
   288G11  C03P18962   3.889  11.250  11.219
   288G11  C04718963   3.969  11.155  10.999
   288G11  C04618964   3.914  11.256  10.922
   288G11  C04518965   3.827  11.360  10.950
   288G11  C03T18966   3.766  11.402  11.066
   288G11  C04418967   3.664  11.498  11.035
   288G11  C04318968   3.683  11.536  10.901
   288G11  C04218969   3.555  11.563  10.847
   288G11  C04118970   3.473  11.588  10.968
   288G11  C04018971   3.342  11.644  10.967
   288G11  C03Z18972   3.265  11.684  11.082
   288G11  C04H18973   3.141  11.717  11.030
   288G11  C04G18974   3.139  11.703  10.893
   288G11  C03N18975   3.276  11.688  11.227
   288G11  C03Y18976   3.164  11.741  11.299
   288G11  C03X18977   3.043  11.780  11.231
   288G11  C04F18978   3.259  11.659  10.850
   288G11  C04E18979   3.268  11.623  10.712
   288G11  C04O18980   3.155  11.638  10.632
   288G11  C04D18981   3.386  11.575  10.650
   288G11  C04V18982   3.385  11.545  10.515
   288G11  C04W18983   3.269  11.546  10.436
   288G11  C04C18984   3.515  11.552  10.702
   288G11  C04L18985   3.596  11.509  10.585
   288G11  C04U18986   3.737  11.467  10.594
   288G11  C05Q18987   3.801  11.381  10.499
   288G11  C05P18988   3.904  11.302  10.548
   288G11  C04T18989   3.898  11.312  10.687
   288G11  C04B18990   3.804  11.416  10.712
   288G11  C03M18991   3.546  11.559  11.094
   288G11  C04A18992   3.771  11.440  10.844
   288G11  C05H18993   3.955  11.236  10.791
   288G11  C05G18994   4.041  11.123  10.786
   288G11  C05F18995   4.120  11.073  10.674
   288G11  C05E18996   4.157  10.933  10.670
   288G11  C05L18997   4.187  10.827  10.762
   288G11  C05K18998   4.176  10.841  10.907
   288G11  C05J18999   4.111  10.945  10.977
   288G11  C06619000   4.221  10.730  10.983
   288G11  C06519001   4.267  10.611  10.919
   288G11  C06419002   4.268  10.601  10.780
   288G11  C06N19003   4.316  10.502  10.998
   288G11  C06919004   4.308  10.509  11.130
   288G11  C06P19005   4.353  10.397  11.206
   288G11  C06R19006   4.337  10.395  11.342
   288G11  C06B19007   4.292  10.509  11.408
   288G11  C06S19008   4.283  10.509  11.547
   288G11  C02G19009   4.237  10.627  11.611
   288G11  C02F19010   4.222  10.618  11.753
   288G11  C02719011   4.239  10.501  11.820
   288G11  C02619012   4.214  10.496  11.961
   288G11  C00E19013   4.211  10.373  12.022
   288G11  C00D19014   4.169  10.359  12.151
   288G11  C00C19015   4.159  10.238  12.203
   288G11  C00B19016   4.194  10.122  12.143
   288G11  C01519017   4.246  10.131  12.016
   288G11  C07F19018   4.296  10.018  11.954
   288G11  C07E19019   4.342  10.030  11.826
   288G11  C06W19020   4.334  10.149  11.760
   288G11  C06V19021   4.288  10.264  11.821
   288G11  C06X19022   4.369  10.160  11.625
   288G11  C07B19023   4.421  10.048  11.560
   288G11  C07C19024   4.437   9.927  11.629
   288G11  C0FU19025   4.491   9.813  11.567
   288G11  C0F719026   4.506   9.697  11.636
   288G11  C0F619027   4.555   9.588  11.569
   288G11  C0F819028   4.581   9.473  11.641
   288G11  C0F919029   4.639   9.362  11.577
   288G11  C0FA19030   4.669   9.245  11.649
   288G11  C0FZ19031   4.635   9.241  11.784
   288G11  C0G019032   4.672   9.121  11.857
   288G11  C0GD19033   4.743   9.015  11.803
   288G11  C0FC19034   4.789   9.032  11.673
   288G11  C0GH19035   4.871   8.936  11.620
   288G11  C0EY19036   4.912   8.951  11.488
   288G11  C0EX19037   5.007   8.860  11.432
   288G11  C0EW19038   5.043   8.878  11.297
   288G11  C0FR19039   5.147   8.794  11.243
   288G11  H01D19040   5.182   8.794  11.141
   288G11  C0FS19041   5.207   8.699  11.323
   288G11  H01C19042   5.276   8.627  11.282
   288G11  C0GJ19043   5.165   8.679  11.453
   288G11  H01N19044   5.212   8.603  11.513
   288G11  C0EV19045   4.977   8.969  11.217
   288G11  C0FT19046   4.999   8.969  11.076
   288G11  H01E19047   5.058   8.895  11.026
   288G11  C0EU19048   4.893   9.064  11.274
   288G11  C0ET19049   4.843   9.168  11.202
   288G11  C0EI19050   4.766   9.270  11.248
   288G11  C0F119051   4.740   9.263  11.385
   288G11  C0F019052   4.779   9.150  11.466
   288G11  C0EH19053   4.721   9.372  11.163
   288G11  C0EG19054   4.738   9.370  11.023
   288G11  C0EJ19055   4.671   9.488  11.227
   288G11  C0F319056   4.648   9.482  11.369
   288G11  C0EK19057   4.651   9.607  11.157
   288G11  C0EL19058   4.673   9.610  11.014
   288G11  C0EM19059   4.647   9.742  10.958
   288G11  C0EN19060   4.618   9.847  11.038
   288G11  C07I19061   4.586   9.965  10.968
   288G11  C07419062   4.527  10.078  11.024
   288G11  C07319063   4.477  10.175  10.944
   288G11  C07219064   4.411  10.283  11.005
   288G11  C07519065   4.511  10.073  11.161
   288G11  C07619066   4.542   9.954  11.231
   288G11  C07819067   4.518   9.942  11.367
   288G11  C07G19068   4.457  10.183  11.223
   288G11  C07019069   4.432  10.170  11.357
   288G11  C07Z19070   4.579   9.935  10.834
   288G11  C07719071   4.589   9.837  11.174
   288G11  C0EO19072   4.611   9.719  11.235
   288G11  C0F419073   4.578   9.711  11.366
   288G11  C0EQ19074   4.854   9.161  11.066
   288G11  C0FQ19075   5.062   8.758  11.507
   288G11  C0GI19076   5.015   8.743  11.636
   288G11  H01L19077   5.052   8.663  11.699
   288G11  C0EZ19078   4.865   9.057  11.410
   288G11  C0GG19079   4.913   8.820  11.696
   288G11  C0GF19080   4.851   8.803  11.821
   288G11  H01M19081   4.872   8.716  11.881
   288G11  C0GE19082   4.772   8.901  11.879
   288G11  H01K19083   4.725   8.891  11.976
   288G11  O00J19084   4.632   9.111  11.991
   288G11  C0GA19085   4.558   9.217  12.048
   288G11  C0G919086   4.522   9.210  12.183
   288G11  H01H19087   4.548   9.124  12.244
   288G11  C0G819088   4.443   9.309  12.244
   288G11  C0G719089   4.388   9.291  12.378
   288G11  H01I19090   4.418   9.202  12.430
   288G11  O00I19091   4.293   9.375  12.422
   288G11  C0G619092   4.284   9.496  12.361
   288G11  H01J19093   4.244   9.575  12.423
   288G11  C02D19094   4.342   9.524  12.234
   288G11  C02C19095   4.327   9.649  12.163
   288G11  C01719096   4.256   9.767  12.216
   288G11  C01619097   4.242   9.885  12.142
   288G11  O00119098   4.201   9.768  12.341
   288G11  C01819099   4.134   9.869  12.402
   288G11  C00919100   4.129   9.993  12.339
   288G11  C00819101   4.069  10.112  12.392
   288G11  C00719102   3.995  10.150  12.508
   288G11  C00619103   3.975  10.066  12.619
   288G11  C00519104   3.901  10.109  12.728
   288G11  C00419105   3.838  10.231  12.762
   288G11  C00319106   3.825  10.356  12.686
   288G11  C00219107   3.738  10.463  12.735
   288G11  C00P19108   3.724  10.584  12.661
   288G11  C00O19109   3.626  10.681  12.696
   288G11  C00N19110   3.614  10.804  12.632
   288G11  C01019111   3.513  10.897  12.664
   288G11  C01119112   3.490  11.014  12.588
   288G11  C01Q19113   3.385  11.103  12.622
   288G11  C01U19114   3.294  11.078  12.728
   288G11  C01219115   3.314  10.953  12.797
   288G11  H00019116   3.252  10.928  12.881
   288G11  C01V19117   3.192  11.179  12.759
   288G11  H00719118   3.122  11.154  12.837
   288G11  O00519119   3.185  11.299  12.697
   288G11  C01W19120   3.276  11.321  12.596
   288G11  C03119121   3.269  11.446  12.524
   288G11  C03219122   3.361  11.466  12.414
   288G11  H00A19123   3.356  11.557  12.356
   288G11  C03319124   3.463  11.376  12.389
   288G11  H00B19125   3.538  11.408  12.319
   288G11  C01O19126   3.466  11.247  12.447
   288G11  C01N19127   3.558  11.155  12.406
   288G11  C01M19128   3.648  11.181  12.295
   288G11  C01L19129   3.660  11.256  12.168
   288G11  C01K19130   3.780  11.219  12.108
   288G11  C01Y19131   3.811  11.238  11.973
   288G11  C02I19132   3.721  11.312  11.894
   288G11  C02N19133   3.753  11.326  11.758
   288G11  C02M19134   3.659  11.404  11.685
   288G11  C02L19135   3.545  11.467  11.740
   288G11  C02K19136   3.518  11.449  11.873
   288G11  C02U19137   3.393  11.490  11.922
   288G11  C02V19138   3.320  11.587  11.856
   288G11  C03H19139   3.219  11.664  11.928
   288G11  H00C19140   3.194  11.660  12.033
   288G11  C02W19141   3.335  11.422  12.021
   288G11  C02X19142   3.423  11.347  12.096
   288G11  C02Y19143   3.328  11.259  12.150
   288G11  H00819144   3.334  11.166  12.206
   288G11  C02Z19145   3.189  11.309  12.126
   288G11  O00419146   3.085  11.262  12.171
   288G11  O00319147   3.198  11.412  12.041
   288G11  C02J19148   3.598  11.363  11.951
   288G11  C01Z19149   3.906  11.146  11.926
   288G11  C02019150   3.965  11.047  12.005
   288G11  C01I19151   3.943  11.035  12.142
   288G11  C01H19152   3.960  10.918  12.215
   288G11  C00K19153   3.886  10.900  12.332
   288G11  C01S19154   3.781  10.983  12.367
   288G11  C01419155   3.687  10.956  12.462
   288G11  C00J19156   3.893  10.776  12.394
   288G11  C00I19157   3.975  10.677  12.339
   288G11  C00H19158   4.042  10.697  12.219
   288G11  C00G19159   4.103  10.594  12.153
   288G11  C00S19160   3.976  10.554  12.398
   288G11  C00T19161   4.046  10.459  12.332
   288G11  C00U19162   4.035  10.329  12.382
   288G11  C00R19163   3.897  10.524  12.511
   288G11  C00L19164   3.806  10.745  12.497
   288G11  C02819165   4.037  10.817  12.155
   288G11  C02319166   4.082  10.834  12.024
   288G11  C02419167   4.148  10.728  11.958
   288G11  C02119168   4.040  10.946  11.945
   288G11  C02219169   4.063  10.949  11.811
   288G11  C02H19170   4.135  10.843  11.749
   288G11  C03019171   4.156  10.848  11.612
   288G11  C03419172   4.113  10.951  11.535
   288G11  C02P19173   4.015  11.054  11.738
   288G11  C02B19174   3.937  11.156  11.796
   288G11  C01J19175   3.854  11.132  12.190
   288G11  C01X19176   3.558  11.320  12.080
   288G11  C01T19177   3.767  11.102  12.292
   288G11  H00919178   3.198  11.524  12.548
   288G11  C01P19179   3.379  11.224  12.555
   288G11  C01R19180   3.580  11.037  12.482
   288G11  C00Z19181   3.417  10.859  12.765
   288G11  O00019182   3.439  10.747  12.839
   288G11  C00M19183   3.709  10.838  12.535
   288G11  C00Y19184   3.541  10.659  12.805
   288G11  C01319185   3.563  10.543  12.880
   288G11  H00119186   3.501  10.523  12.966
   288G11  C00Q19187   3.810  10.619  12.559
   288G11  C00119188   3.657  10.445  12.847
   288G11  C00019189   3.675  10.327  12.922
   288G11  H00619190   3.623  10.316  13.016
   288G11  C00W19191   3.900  10.398  12.571
   288G11  C01G19192   3.768  10.231  12.884
   288G11  H00519193   3.765  10.149  12.955
   288G11  C01C19194   3.905   9.996  12.821
   288G11  H00219195   3.859   9.979  12.918
   288G11  C01B19196   3.966   9.885  12.749
   288G11  C01D19197   3.985   9.750  12.792
   288G11  H00319198   3.952   9.712  12.888
   288G11  C01E19199   4.060   9.682  12.703
   288G11  H00419200   4.084   9.583  12.740
   288G11  O00219201   4.108   9.719  12.576
   288G11  C01A19202   4.019   9.933  12.628
   288G11  C00V19203   3.976  10.291  12.503
   288G11  C01919204   4.090   9.848  12.535
   288G11  C02E19205   4.379   9.664  12.030
   288G11  C0FX19206   4.444   9.558  11.967
   288G11  C0FW19207   4.486   9.568  11.837
   288G11  C0GB19208   4.461   9.439  12.042
   288G11  C0G319209   4.357   9.782  11.959
   288G11  C07H19210   4.412   9.795  11.833
   288G11  C0GC19211   4.415   9.425  12.171
   288G11  C0G219212   4.528   9.338  11.979
   288G11  C0G119213   4.568   9.346  11.844
   288G11  C0FB19214   4.741   9.140  11.594
   288G11  C0F219215   4.672   9.370  11.441
   288G11  C0FY19216   4.546   9.462  11.778
   288G11  C0F519217   4.590   9.591  11.435
   288G11  C0FV19218   4.469   9.690  11.769
   288G11  C07919219   4.530   9.823  11.433
   288G11  C07A19220   4.460  10.052  11.424
   288G11  C06Y19221   4.349  10.276  11.555
   288G11  C07D19222   4.399   9.914  11.761
   288G11  C01F19223   4.300   9.893  12.017
   288G11  C00A19224   4.186   9.997  12.208
   288G11  C00X19225   4.091  10.225  12.322
   288G11  C00F19226   4.109  10.473  12.212
   288G11  C02919227   4.250  10.258  11.953
   288G11  C02519228   4.165  10.606  12.028
   288G11  C06U19229   4.277  10.386  11.751
   288G11  C02A19230   4.173  10.732  11.822
   288G11  C05Y19231   4.206  10.738  11.543
   288G11  C05Z19232   4.212  10.732  11.398
   288G11  C06019233   4.171  10.843  11.329
   288G11  C06219234   4.173  10.843  11.189
   288G11  C06T19235   4.308  10.394  11.618
   288G11  C06A19236   4.261  10.622  11.333
   288G11  C06Z19237   4.373  10.277  11.421
   288G11  C06Q19238   4.406  10.287  11.147
   288G11  C06819239   4.263  10.617  11.193
   288G11  C06719240   4.218  10.731  11.119
   288G11  C06319241   4.224  10.707  10.701
   288G11  C06C19242   4.213  10.687  10.565
   288G11  C06D19243   4.175  10.786  10.474
   288G11  C06E19244   4.137  10.766  10.344
   288G11  C07Q19245   4.155  10.643  10.296
   288G11  C07P19246   4.208  10.542  10.372
   288G11  C07T19247   4.226  10.415  10.315
   288G11  C07U19248   4.284  10.311  10.396
   288G11  C07V19249   4.301  10.183  10.344
   288G11  C08419250   4.272  10.165  10.208
   288G11  C08C19251   4.222  10.271  10.130
   288G11  C08B19252   4.186  10.241   9.998
   288G11  C08A19253   4.124  10.343   9.934
   288G11  C08919254   4.098  10.471   9.980
   288G11  C08819255   4.036  10.560   9.895
   288G11  C08719256   4.013  10.687   9.948
   288G11  C08619257   4.049  10.715  10.084
   288G11  C08X19258   4.005  10.534   9.759
   288G11  C08T19259   3.994  10.393   9.726
   288G11  C08D19260   4.127  10.490  10.111
   288G11  C08U19261   4.061  10.308   9.814
   288G11  C08V19262   4.075  10.183   9.755
   288G11  C0CY19263   4.132  10.078   9.823
   288G11  C0CX19264   4.120   9.952   9.780
   288G11  C0CW19265   4.168   9.848   9.857
   288G11  C0CV19266   4.219   9.877   9.983
   288G11  C0D419267   4.233  10.009  10.026
   288G11  C0CU19268   4.259   9.772  10.055
   288G11  C0CT19269   4.253   9.642  10.017
   288G11  C0CS19270   4.194   9.609   9.893
   288G11  C0D619271   4.315   9.807  10.173
   288G11  C0EC19272   4.319   9.934  10.230
   288G11  C07X19273   4.364   9.962  10.358
   288G11  C0DL19274   4.371   9.702  10.250
   288G11  C0DK19275   4.423   9.731  10.372
   288G11  C0DN19276   4.477   9.615  10.412
   288G11  C0D819277   4.381   9.572  10.214
   288G11  C08W19278   3.998  10.170   9.636
   288G11  C0CQ19279   3.997  10.035   9.584
   288G11  C09319280   4.187  10.110   9.945
   288G11  C09219281   4.278  10.040  10.155
   288G11  C08519282   4.188  10.391  10.184
   288G11  C07S19283   4.112  10.616  10.167
   288G11  C06F19284   4.078  10.865  10.265
   288G11  C07O19285   4.242  10.563  10.508
   288G11  C07N19286   4.296  10.458  10.584
   288G11  C05D19287   4.160  10.907  10.532
   288G11  C05C19288   4.104  11.004  10.452
   288G11  C05N19289   4.070  11.110  10.542
   288G11  C05M19290   4.047  11.063  10.912
   288G11  C05I19291   4.107  10.947  11.122
   288G11  C06119292   4.131  10.953  11.397
   288G11  C02Q19293   4.051  11.052  11.607
   288G11  C02O19294   3.868  11.253  11.715
   288G11  C03Q19295   3.932  11.246  11.355
   288G11  C03O19296   3.787  11.348  11.190
   288G11  C03L19297   3.507  11.564  11.232
   288G11  C02S19298   3.673  11.422  11.540
   288G11  C02T19299   3.459  11.545  11.660
   288G11  C03K19300   3.389  11.622  11.299
   288G11  C03I19301   3.346  11.608  11.719
   288G11  C03G19302   3.141  11.740  11.848
   288G11  H00D19303   3.071  11.794  11.909
   288G11  C03J19304   3.169  11.755  11.438
   288G11  C03W19305   2.928  11.830  11.303
   288G11  C04I19306   3.028  11.767  11.098
   288G11  C04K19307   3.021  11.713  10.824
   288G11  C04N19308   3.035  11.685  10.684
   288G11  C04X19309   3.156  11.609  10.494
   288G11  C05019310   3.285  11.506  10.300
   288G11  C05W19311   3.507  11.497  10.474
   288G11  C05S19312   3.619  11.277  10.060
   288G11  C05R19313   3.768  11.367  10.367
   288G11  C05O19314   3.982  11.205  10.480
   288G11  C05B19315   4.056  10.987  10.320
   288G11  C05A19316   3.815  11.151  10.100
   288G11  C07R19317   4.026  10.834  10.138
   288G11  C08N19318   3.939  10.780   9.872
   288G11  C08M19319   3.915  10.754   9.734
   288G11  C08L19320   3.853  10.852   9.657
   288G11  C09119321   3.701  11.159  10.018
   288G11  C09K19322   3.495  11.081   9.734
   288G11  H00M19323   3.408  11.044   9.785
   288G11  C08K19324   3.796  10.965   9.725
   288G11  C09J19325   3.502  11.073   9.590
   288G11  C09I19326   3.425  11.009   9.486
   288G11  C09L19327   3.287  11.022   9.453
   288G11  H00N19328   3.223  11.088   9.509
   288G11  C09Q19329   3.236  10.955   9.346
   288G11  H00O19330   3.134  10.957   9.312
   288G11  O00B19331   3.317  10.878   9.265
   288G11  C09G19332   3.449  10.856   9.299
   288G11  C09F19333   3.513  10.761   9.215
   288G11  O00A19334   3.433  10.705   9.117
   288G11  C09P19335   3.489  10.649   9.003
   288G11  H00P19336   3.503  10.709   8.914
   288G11  C09O19337   3.602  10.565   9.034
   288G11  C09D19338   3.683  10.604   9.143
   288G11  C09C19339   3.803  10.533   9.190
   288G11  C09N19340   3.839  10.398   9.182
   288G11  C09T19341   3.750  10.303   9.130
   288G11  C09S19342   3.687  10.334   9.005
   288G11  C0CP19343   3.718  10.216   8.930
   288G11  C0CN19344   3.779  10.113   9.000
   288G11  C0CO19345   3.810   9.996   8.933
   288G11  H01419346   3.863   9.910   8.971
   288G11  C0CZ19347   3.746   9.983   8.804
   288G11  H01519348   3.757   9.891   8.748
   288G11  C0D019349   3.670  10.088   8.744
   288G11  C0G519350   3.600  10.071   8.620
   288G11  H01F19351   3.620   9.979   8.568
   288G11  C0G419352   3.520  10.173   8.581
   288G11  H01G19353   3.484  10.167   8.479
   288G11  O00H19354   3.496  10.297   8.642
   288G11  C0D219355   3.570  10.306   8.753
   288G11  C09V19356   3.554  10.425   8.831
   288G11  H00Q19357   3.489  10.500   8.789
   288G11  C0D119358   3.660  10.209   8.805
   288G11  C09R19359   3.618  10.448   8.957
   288G11  C09H19360   3.509  10.929   9.404
   288G11  C09E19361   3.651  10.722   9.220
   288G11  C09B19362   3.899  10.590   9.272
   288G11  C08Z19363   3.847  10.827   9.516
   288G11  C08O19364   3.957  10.626   9.674
   288G11  C09A19365   3.992  10.492   9.320
   288G11  C08S19366   3.955  10.304   9.612
   288G11  C09919367   3.953  10.368   9.268
   288G11  C09U19368   3.786  10.162   9.133
   288G11  C0BO19369   3.791   9.726   9.284
   288G11  C0CL19370   3.933  10.016   9.457
   288G11  C0D319371   4.048   9.932   9.659
   288G11  C0D519372   4.153   9.715   9.812
   288G11  C0BR19373   3.933   9.645   9.462
   288G11  C0BQ19374   3.850   9.618   9.356
   288G11  C0BL19375   3.680   9.565   9.137
   288G11  C0AF19376   3.641   9.307   9.053
   288G11  C0BH19377   3.859   9.249   9.343
   288G11  C0BG19378   3.915   9.140   9.410
   288G11  C0BD19379   3.823   8.983   9.253
   288G11  C0AG19380   3.628   9.180   9.016
   288G11  C0AI19381   3.503   9.025   8.886
   288G11  C0AV19382   3.383   8.785   8.859
   288G11  C0BB19383   3.685   8.709   9.057
   288G11  O00C19384   3.370   8.560   8.970
   288G11  C0BC19385   3.704   8.594   9.129
   288G11  C0B919386   3.792   8.848   9.215
   288G11  O00E19387   3.932   8.673   9.496
   288G11  C0CA19388   4.009   8.679   9.604
   288G11  O00F19389   4.051   8.577   9.662
   288G11  C0BF19390   3.890   9.010   9.374
   288G11  C0C519391   4.046   8.818   9.641
   288G11  C0C419392   4.119   8.841   9.764
   288G11  H01119393   4.159   8.758   9.820
   288G11  C0C819394   3.989   9.164   9.523
   288G11  C0C219395   4.155   8.976   9.792
   288G11  C0C319396   4.229   9.013   9.905
   288G11  C0DY19397   4.303   8.926   9.982
   288G11  H01619398   4.318   8.819   9.978
   288G11  C0DX19399   4.367   9.007  10.083
   288G11  C0DW19400   4.452   8.945  10.179
   288G11  C0BY19401   4.078   9.322   9.685
   288G11  C0DB19402   4.255   9.138   9.947
   288G11  C0CC19403   4.180   9.479   9.852
   288G11  C0D719404   4.310   9.536  10.093
   288G11  C0DZ19405   4.334   9.145  10.062
   288G11  C0DM19406   4.457   9.512  10.315
   288G11  C0DQ19407   4.491   9.153  10.328
   288G11  C0DV19408   4.488   9.016  10.298
   288G11  C0E019409   4.487   8.805  10.201
   288G11  C0FO19410   4.747   8.688  10.402
   288G11  C0E319411   4.550   8.705  10.119
   288G11  H01719412   4.568   8.708  10.012
   288G11  C0GV19413   4.826   8.600  10.330
   288G11  C0ES19414   4.807   8.787  10.483
   288G11  C0GQ19415   5.161   8.668  10.454
   288G11  C0FJ19416   5.224   8.917  10.726
   288G11  C0ED19417   4.945   8.966  10.674
   288G11  C0ER19418   4.937   9.073  11.003
   288G11  C0EP19419   4.794   9.246  10.975
   288G11  C0E619420   4.735   9.119  10.629
   288G11  C0DE19421   4.645   9.409  10.562
   288G11  C0EA19422   4.707   9.487  10.944
   288G11  C0DF19423   4.653   9.545  10.575
   288G11  C08019424   4.623   9.794  10.824
   288G11  C0DO19425   4.560   9.635  10.519
   288G11  C0DJ19426   4.428   9.860  10.429
   288G11  C07K19427   4.514  10.039  10.746
   288G11  C07W19428   4.363  10.081  10.414
   288G11  C08319429   4.329  10.337  10.525
   288G11  C07J19430   4.470  10.159  10.808
   288G11  C06O19431   4.364  10.388  10.938
   288G11  C06M19432   4.312  10.480  10.718
   298G11  C07119433   6.202   2.785   7.882
   298G11  C07L19434   6.089   2.778   7.966
   298G11  C07M19435   6.089   2.693   8.078
   298G11  C07Y19436   5.971   2.671   8.160
   298G11  C08119437   5.852   2.741   8.128
   298G11  C08219438   5.733   2.692   8.187
   298G11  C0DI19439   5.590   2.715   8.153
   298G11  C0DH19440   5.529   2.812   8.070
   298G11  C0DG19441   5.381   2.791   8.073
   298G11  C0E919442   5.278   2.892   8.069
   298G11  C0E819443   5.187   2.852   8.183
   298G11  C0E719444   5.065   2.920   8.228
   298G11  C0EB19445   5.000   3.023   8.146
   298G11  C0EF19446   4.876   3.096   8.174
   298G11  C0EE19447   4.846   3.166   8.291
   298G11  C0FD19448   4.808   3.303   8.286
   298G11  C0FE19449   4.803   3.388   8.172
   298G11  H01B19450   4.836   3.358   8.073
   298G11  C0FF19451   4.754   3.516   8.171
   298G11  H01A19452   4.741   3.573   8.080
   298G11  C0FG19453   4.733   3.572   8.294
   298G11  H01819454   4.700   3.674   8.294
   298G11  C0FH19455   4.748   3.502   8.415
   298G11  C0FI19456   4.731   3.560   8.543
   298G11  H01919457   4.711   3.666   8.547
   298G11  O00K19458   4.744   3.497   8.660
   298G11  C0FL19459   4.737   3.361   8.646
   298G11  C0FK19460   4.769   3.294   8.524
   298G11  C0FM19461   4.774   3.156   8.524
   298G11  C0FN19462   4.735   3.077   8.630
   298G11  C0FP19463   4.691   3.141   8.745
   298G11  C0GO19464   4.659   3.072   8.859
   298G11  C0GN19465   4.649   3.132   8.982
   298G11  C0GR19466   4.662   3.271   8.984
   298G11  C0GS19467   4.654   3.340   9.110
   298G11  H01Q19468   4.654   3.448   9.117
   298G11  C0GT19469   4.639   3.265   9.231
   298G11  H01O19470   4.624   3.305   9.330
   298G11  C0GU19471   4.644   3.125   9.221
   298G11  H01P19472   4.631   3.057   9.304
   298G11  O00L19473   4.670   3.349   8.870
   298G11  C0GM19474   4.646   3.058   9.098
   298G11  C0GL19475   4.675   2.918   9.085
   298G11  H01R19476   4.698   2.857   9.171
   298G11  C0GK19477   4.673   2.855   8.964
   298G11  C0GP19478   4.708   2.721   8.913
   298G11  C0E219479   4.683   2.731   8.769
   298G11  C0E119480   4.764   2.635   8.709
   298G11  C0DU19481   4.870   2.663   8.615
   298G11  C0DT19482   4.890   2.767   8.526
   298G11  C0E419483   4.831   2.887   8.531
   298G11  C0E519484   4.881   2.958   8.426
   298G11  C0DS19485   4.996   2.768   8.431
   298G11  C0DR19486   5.089   2.656   8.441
   298G11  C0DD19487   5.201   2.638   8.362
   298G11  C0DC19488   5.270   2.535   8.434
   298G11  C0DP19489   5.197   2.481   8.547
   298G11  C0DA19490   5.237   2.367   8.640
   298G11  C0D919491   5.365   2.287   8.652
   298G11  C0CR19492   5.365   2.167   8.726
   298G11  C0C019493   5.256   2.119   8.792
   298G11  C0BZ19494   5.246   2.006   8.871
   298G11  C0C119495   5.126   1.963   8.927
   298G11  C0C719496   5.117   1.845   8.997
   298G11  C0C619497   4.993   1.795   9.046
   298G11  C0C919498   4.987   1.678   9.114
   298G11  C0B819499   4.863   1.630   9.160
   298G11  C0B719500   4.858   1.519   9.248
   298G11  C0B619501   4.748   1.448   9.313
   298G11  C0B519502   4.626   1.428   9.247
   298G11  H00Z19503   4.592   1.460   9.149
   298G11  C0B419504   4.578   1.308   9.309
   298G11  H01019505   4.515   1.229   9.271
   298G11  C0B319506   4.658   1.270   9.426
   298G11  C0AP19507   4.723   1.149   9.479
   298G11  C0AQ19508   4.856   1.187   9.494
   298G11  C0AR19509   4.961   1.093   9.486
   298G11  C0AS19510   5.080   1.147   9.446
   298G11  C0AT19511   5.094   1.276   9.388
   298G11  C0BA19512   4.989   1.355   9.381
   298G11  C0AU19513   5.208   1.306   9.311
   298G11  C0BE19514   5.212   1.418   9.232
   298G11  C0BI19515   5.329   1.450   9.165
   298G11  C0BJ19516   5.432   1.358   9.164
   298G11  C0BK19517   5.545   1.385   9.089
   298G11  C0BW19518   5.555   1.503   9.017
   298G11  C0BV19519   5.451   1.594   9.019
   298G11  C0BU19520   5.458   1.722   8.951
   298G11  C0BX19521   5.350   1.807   8.946
   298G11  C0BT19522   5.579   1.758   8.896
   298G11  C0CD19523   5.587   1.884   8.829
   298G11  C0CB19524   5.479   1.967   8.820
   298G11  C0CE19525   5.709   1.925   8.777
   298G11  C0CK19526   5.821   1.835   8.784
   298G11  C0BS19527   5.806   1.706   8.829
   298G11  C0CJ19528   5.912   1.613   8.825
   298G11  C0BP19529   5.892   1.481   8.871
   298G11  C0CI19530   5.984   1.380   8.847
   298G11  C0CH19531   5.962   1.253   8.905
   298G11  H01219532   6.049   1.189   8.909
   298G11  C0BN19533   5.844   1.215   8.965
   298G11  C0CG19534   5.816   1.086   9.010
   298G11  C0CF19535   5.908   0.979   8.982
   298G11  H01319536   5.997   0.989   8.923
   298G11  O00G19537   5.897   0.850   9.027
   298G11  C0AA19538   5.786   0.830   9.104
   298G11  C0A919539   5.783   0.705   9.157
   298G11  H00U19540   5.859   0.631   9.137
   298G11  C0A819541   5.671   0.663   9.221
   298G11  H00V19542   5.685   0.562   9.255
   298G11  C0A719543   5.563   0.745   9.248
   298G11  C0A619544   5.579   0.888   9.212
   298G11  C0A519545   5.493   0.994   9.252
   298G11  C0A419546   5.378   0.977   9.338
   298G11  C0A319547   5.308   0.862   9.396
   298G11  C0A219548   5.327   0.725   9.361
   298G11  C0A119549   5.236   0.621   9.391
   298G11  C0A019550   5.096   0.610   9.435
   298G11  C09Z19551   5.050   0.475   9.446
   298G11  C09Y19552   4.919   0.447   9.493
   298G11  H00Y19553   4.889   0.344   9.506
   298G11  C09X19554   4.838   0.553   9.523
   298G11  C09W19555   4.709   0.517   9.570
   298G11  H00R19556   4.682   0.416   9.599
   298G11  C0AX19557   4.604   0.608   9.573
   298G11  H00S19558   4.503   0.575   9.593
   298G11  C0AW19559   4.627   0.742   9.536
   298G11  H00T19560   4.552   0.819   9.550
   298G11  C0AN19561   4.762   0.784   9.505
   298G11  C0AO19562   4.800   0.914   9.492
   298G11  C0AM19563   4.867   0.686   9.495
   298G11  C0B219564   5.122   0.352   9.420
   298G11  O00D19565   5.085   0.238   9.462
   298G11  C0B119566   5.248   0.372   9.359
   298G11  H00W19567   5.300   0.283   9.327
   298G11  C0AL19568   5.007   0.717   9.465
   298G11  C0AK19569   5.040   0.858   9.461
   298G11  C0B019570   5.307   0.503   9.351
   298G11  C0AZ19571   5.433   0.534   9.297
   298G11  H00X19572   5.504   0.463   9.259
   298G11  C0AJ19573   5.176   0.912   9.435
   298G11  C0AH19574   5.300   1.092   9.366
   298G11  C0AE19575   5.513   1.127   9.204
   298G11  C0AD19576   5.622   1.158   9.123
   298G11  C0AY19577   5.450   0.674   9.305
   298G11  C0AB19578   5.691   0.927   9.133
   298G11  C0AC19579   5.715   1.057   9.090
   298G11  C0BM19580   5.749   1.314   8.991
   298G11  C0CM19581   6.100   1.412   8.775
   298G11  C09M19582   6.140   1.545   8.760
   298G11  C09819583   6.281   1.572   8.747
   298G11  C08R19584   6.351   1.684   8.694
   298G11  C08Q19585   6.491   1.678   8.709
   298G11  C08P19586   6.610   1.728   8.630
   298G11  C08Y19587   6.727   1.650   8.637
   298G11  C09719588   6.711   1.512   8.670
   298G11  C09619589   6.795   1.428   8.609
   298G11  C09019590   6.887   1.518   8.550
   298G11  C09519591   7.007   1.479   8.488
   298G11  C09419592   7.102   1.575   8.433
   298G11  C08J19593   7.088   1.715   8.406
   298G11  C08I19594   7.160   1.739   8.285
   298G11  C08H19595   7.095   1.846   8.209
   298G11  C08G19596   6.968   1.879   8.281
   298G11  C08F19597   6.858   1.982   8.277
   298G11  C08E19598   6.869   2.095   8.195
   298G11  C05919599   6.982   2.136   8.119
   298G11  C05819600   6.975   2.253   8.038
   298G11  C05719601   7.073   2.292   7.947
   298G11  C05619602   7.186   2.213   7.947
   298G11  C05519603   7.221   2.127   8.046
   298G11  C05419604   7.323   2.040   7.995
   298G11  C05319605   7.358   2.078   7.862
   298G11  C05219606   7.442   2.018   7.761
   298G11  C05119607   7.513   1.893   7.790
   298G11  C05U19608   7.490   1.813   7.908
   298G11  C05T19609   7.403   1.807   8.032
   298G11  C06K19610   7.461   1.720   8.126
   298G11  H00J19611   7.414   1.715   8.223
   298G11  C06L19612   7.564   1.647   8.058
   298G11  H00I19613   7.608   1.556   8.096
   298G11  C05V19614   7.589   1.710   7.932
   298G11  C06J19615   7.683   1.671   7.839
   298G11  H00K19616   7.745   1.586   7.862
   298G11  C05X19617   7.688   1.727   7.712
   298G11  C06I19618   7.779   1.695   7.605
   298G11  H00L19619   7.860   1.625   7.622
   298G11  C04Z19620   7.787   1.757   7.479
   298G11  C06H19621   7.882   1.717   7.380
   298G11  H00H19622   7.946   1.631   7.396
   298G11  C04Y19623   7.875   1.775   7.249
   298G11  C06G19624   7.958   1.719   7.147
   298G11  O00919625   8.031   1.620   7.152
   298G11  O00819626   7.955   1.791   7.020
   298G11  C04P19627   7.868   1.891   6.999
   298G11  C04J19628   7.857   1.960   6.868
   298G11  C04Q19629   7.930   1.935   6.752
   298G11  H00E19630   8.000   1.853   6.758
   298G11  C04M19631   7.912   2.005   6.628
   298G11  C04R19632   7.984   1.986   6.509
   298G11  H00F19633   8.061   1.911   6.511
   298G11  C04S19634   7.961   2.060   6.398
   298G11  H00G19635   8.030   2.041   6.317
   298G11  O00719636   7.855   2.148   6.386
   298G11  C03V19637   7.785   2.171   6.504
   298G11  C03U19638   7.683   2.265   6.496
   298G11  O00619639   7.643   2.304   6.372
   298G11  C03F19640   7.563   2.417   6.372
   298G11  C03E19641   7.500   2.473   6.486
   298G11  C03D19642   7.523   2.412   6.609
   298G11  C03C19643   7.454   2.451   6.727
   298G11  C03B19644   7.368   2.564   6.705
   298G11  C03A19645   7.288   2.603   6.811
   298G11  C03919646   7.302   2.548   6.944
   298G11  C03819647   7.200   2.624   7.016
   298G11  C03719648   7.145   2.717   6.927
   298G11  C03619649   7.066   2.816   6.970
   298G11  C02R19650   7.003   2.915   6.898
   298G11  C03519651   6.915   2.976   6.997
   298G11  C03R19652   6.923   2.918   7.124
   298G11  C03S19653   6.820   2.907   7.217
   298G11  C04919654   6.842   2.815   7.317
   298G11  C04819655   6.953   2.733   7.305
   298G11  C03P19656   7.048   2.720   7.192
   298G11  C04719657   6.967   2.654   7.418
   298G11  C04619658   7.071   2.573   7.449
   298G11  C04519659   7.178   2.524   7.371
   298G11  C03T19660   7.212   2.543   7.242
   298G11  C04419661   7.316   2.453   7.212
   298G11  C04319662   7.370   2.410   7.334
   298G11  C04219663   7.452   2.294   7.319
   298G11  C04119664   7.475   2.297   7.175
   298G11  C04019665   7.559   2.207   7.108
   298G11  C03Z19666   7.595   2.207   6.973
   298G11  C04H19667   7.688   2.102   6.961
   298G11  C04G19668   7.709   2.045   7.086
   298G11  C03N19669   7.564   2.281   6.852
   298G11  C03Y19670   7.643   2.241   6.738
   298G11  C03X19671   7.730   2.129   6.735
   298G11  C04F19672   7.629   2.100   7.177
   298G11  C04E19673   7.632   2.047   7.309
   298G11  C04O19674   7.709   1.932   7.333
   298G11  C04D19675   7.558   2.090   7.417
   298G11  C04V19676   7.560   2.026   7.543
   298G11  C04W19677   7.628   1.903   7.565
   298G11  C04C19678   7.478   2.205   7.430
   298G11  C04L19679   7.432   2.208   7.567
   298G11  C04U19680   7.332   2.289   7.618
   298G11  C05Q19681   7.263   2.283   7.740
   298G11  C05P19682   7.160   2.372   7.739
   298G11  C04T19683   7.153   2.443   7.626
   298G11  C04B19684   7.257   2.385   7.550
   298G11  C03M19685   7.400   2.402   7.104
   298G11  C04A19686   7.273   2.436   7.425
   298G11  C05H19687   7.058   2.532   7.578
   298G11  C05G19688   6.939   2.584   7.632
   298G11  C05F19689   6.898   2.573   7.767
   298G11  C05E19690   6.765   2.590   7.809
   298G11  C05L19691   6.647   2.657   7.760
   298G11  C05K19692   6.650   2.737   7.639
   298G11  C05J19693   6.755   2.748   7.537
   298G11  C06619694   6.528   2.808   7.613
   298G11  C06519695   6.419   2.799   7.705
   298G11  C06419696   6.421   2.717   7.815
   298G11  C06N19697   6.305   2.870   7.677
   298G11  C06919698   6.293   2.946   7.557
   298G11  C06P19699   6.174   3.004   7.522
   298G11  C06R19700   6.153   3.060   7.396
   298G11  C06B19701   6.256   3.060   7.307
   298G11  C06S19702   6.236   3.119   7.181
   298G11  C02G19703   6.340   3.129   7.094
   298G11  C02F19704   6.321   3.176   6.963
   298G11  C02719705   6.199   3.222   6.927
   298G11  C02619706   6.172   3.263   6.800
   298G11  C00E19707   6.049   3.307   6.762
   298G11  C00D19708   6.030   3.346   6.632
   298G11  C00C19709   5.905   3.384   6.595
   298G11  C00B19710   5.793   3.372   6.672
   298G11  C01519711   5.814   3.331   6.802
   298G11  C07F19712   5.704   3.319   6.888
   298G11  C07E19713   5.726   3.290   7.020
   298G11  C06W19714   5.852   3.248   7.061
   298G11  C06V19715   5.963   3.258   6.974
   298G11  C06X19716   5.878   3.204   7.190
   298G11  C07B19717   5.777   3.200   7.283
   298G11  C07C19718   5.650   3.236   7.239
   298G11  C0FU19719   5.541   3.217   7.323
   298G11  C0F719720   5.413   3.250   7.282
   298G11  C0F619721   5.308   3.238   7.372
   298G11  C0F819722   5.180   3.279   7.332
   298G11  C0F919723   5.069   3.270   7.419
   298G11  C0FA19724   4.944   3.309   7.373
   298G11  C0FZ19725   4.929   3.355   7.251
   298G11  C0G019726   4.798   3.392   7.205
   298G11  C0GD19727   4.684   3.376   7.279
   298G11  C0FC19728   4.702   3.337   7.414
   298G11  C0GH19729   4.593   3.337   7.498
   298G11  C0EY19730   4.609   3.293   7.627
   298G11  C0EX19731   4.501   3.295   7.716
   298G11  C0EW19732   4.522   3.246   7.849
   298G11  C0FR19733   4.415   3.246   7.941
   298G11  H01D19734   4.423   3.209   8.042
   298G11  C0FS19735   4.295   3.299   7.906
   298G11  H01C19736   4.220   3.313   7.983
   298G11  C0GJ19737   4.278   3.355   7.780
   298G11  H01N19738   4.177   3.389   7.763
   298G11  C0EV19739   4.647   3.202   7.893
   298G11  C0FT19740   4.680   3.161   8.023
   298G11  H01E19741   4.614   3.170   8.109
   298G11  C0EU19742   4.756   3.206   7.801
   298G11  C0ET19743   4.883   3.159   7.834
   298G11  C0EI19744   5.000   3.163   7.759
   298G11  C0F119745   4.981   3.211   7.632
   298G11  C0F019746   4.850   3.262   7.589
   298G11  C0EH19747   5.128   3.117   7.805
   298G11  C0EG19748   5.149   3.050   7.927
   298G11  C0EJ19749   5.239   3.136   7.718
   298G11  C0F319750   5.216   3.188   7.590
   298G11  C0EK19751   5.368   3.100   7.766
   298G11  C0EL19752   5.392   3.034   7.889
   298G11  C0EM19753   5.533   3.006   7.917
   298G11  C0EN19754   5.635   3.056   7.840
   298G11  C07I19755   5.754   3.001   7.878
   298G11  C07419756   5.863   3.000   7.789
   298G11  C07319757   5.972   2.924   7.821
   298G11  C07219758   6.083   2.930   7.733
   298G11  C07519759   5.840   3.058   7.664
   298G11  C07619760   5.715   3.110   7.628
   298G11  C07819761   5.688   3.150   7.500
   298G11  C07G19762   5.943   3.054   7.576
   298G11  C07019763   5.924   3.107   7.449
   298G11  C07Z19764   5.741   2.919   7.994
   298G11  C07719765   5.607   3.109   7.715
   298G11  C0EO19766   5.477   3.121   7.675
   298G11  C0F419767   5.451   3.165   7.543
   298G11  C0EQ19768   4.904   3.108   7.961
   298G11  C0FQ19769   4.375   3.344   7.681
   298G11  C0GI19770   4.356   3.381   7.549
   298G11  H01L19771   4.258   3.410   7.513
   298G11  C0EZ19772   4.735   3.255   7.670
   298G11  C0GG19773   4.461   3.371   7.452
   298G11  C0GF19774   4.441   3.400   7.321
   298G11  H01M19775   4.341   3.413   7.283
   298G11  C0GE19776   4.552   3.408   7.233
   298G11  H01K19777   4.532   3.455   7.138
   298G11  O00J19778   4.781   3.448   7.083
   298G11  C0GA19779   4.880   3.433   6.992
   298G11  C0G919780   4.849   3.441   6.859
   298G11  H01H19781   4.747   3.456   6.830
   298G11  C0G819782   4.947   3.436   6.758
   298G11  C0G719783   4.920   3.446   6.616
   298G11  H01I19784   4.818   3.458   6.582
   298G11  O00I19785   5.020   3.447   6.521
   298G11  C0G619786   5.144   3.405   6.569
   298G11  H01J19787   5.207   3.361   6.493
   298G11  C02D19788   5.181   3.400   6.711
   298G11  C02C19789   5.312   3.390   6.753
   298G11  C01719790   5.426   3.397   6.666
   298G11  C01619791   5.557   3.383   6.711
   298G11  O00119792   5.412   3.429   6.532
   298G11  C01819793   5.513   3.430   6.438
   298G11  C00919794   5.649   3.426   6.485
   298G11  C00819795   5.768   3.438   6.402
   298G11  C00719796   5.797   3.441   6.260
   298G11  C00619797   5.699   3.438   6.160
   298G11  C00519798   5.729   3.444   6.023
   298G11  C00419799   5.852   3.420   5.952
   298G11  C00319800   5.982   3.365   5.999
   298G11  C00219801   6.078   3.330   5.899
   298G11  C00P19802   6.202   3.273   5.937
   298G11  C00O19803   6.294   3.230   5.844
   298G11  C00N19804   6.417   3.178   5.884
   298G11  C01019805   6.512   3.130   5.794
   298G11  C01119806   6.641   3.082   5.829
   298G11  C01Q19807   6.725   3.023   5.735
   298G11  C01U19808   6.693   3.038   5.595
   298G11  C01219809   6.568   3.091   5.561
   298G11  H00019810   6.558   3.100   5.454
   298G11  C01V19811   6.793   3.000   5.507
   298G11  H00719812   6.779   3.013   5.401
   298G11  O00519813   6.913   2.945   5.541
   298G11  C01W19814   6.929   2.914   5.678
   298G11  C03119815   7.035   2.831   5.711
   298G11  C03219816   7.055   2.797   5.846
   298G11  H00A19817   7.134   2.735   5.884
   298G11  C03319818   6.967   2.848   5.943
   298G11  H00B19819   6.964   2.811   6.045
   298G11  C01O19820   6.866   2.941   5.911
   298G11  C01N19821   6.794   3.012   6.008
   298G11  C01M19822   6.838   3.026   6.152
   298G11  C01L19823   6.939   2.982   6.254
   298G11  C01K19824   6.888   3.030   6.377
   298G11  C01Y19825   6.917   2.986   6.506
   298G11  C02I19826   7.022   2.901   6.520
   298G11  C02N19827   7.060   2.870   6.654
   298G11  C02M19828   7.164   2.774   6.672
   298G11  C02L19829   7.237   2.726   6.565
   298G11  C02K19830   7.213   2.784   6.440
   298G11  C02U19831   7.305   2.749   6.337
   298G11  C02V19832   7.399   2.643   6.352
   298G11  C03H19833   7.470   2.597   6.238
   298G11  H00C19834   7.451   2.643   6.142
   298G11  C02W19835   7.302   2.828   6.224
   298G11  C02X19836   7.188   2.899   6.194
   298G11  C02Y19837   7.220   2.972   6.081
   298G11  H00819838   7.157   3.045   6.032
   298G11  C02Z19839   7.357   2.931   6.041
   298G11  O00419840   7.431   2.962   5.944
   298G11  O00319841   7.399   2.846   6.130
   298G11  C02J19842   7.100   2.864   6.411
   298G11  C01Z19843   6.836   3.038   6.607
   298G11  C02019844   6.715   3.100   6.582
   298G11  C01I19845   6.677   3.125   6.453
   298G11  C01H19846   6.561   3.179   6.414
   298G11  C00K19847   6.524   3.184   6.282
   298G11  C01S19848   6.610   3.133   6.189
   298G11  C01419849   6.581   3.136   6.053
   298G11  C00J19850   6.401   3.232   6.244
   298G11  C00I19851   6.311   3.268   6.343
   298G11  C00H19852   6.345   3.255   6.480
   298G11  C00G19853   6.252   3.281   6.578
   298G11  C00S19854   6.189   3.314   6.305
   298G11  C00T19855   6.107   3.349   6.407
   298G11  C00U19856   5.988   3.408   6.370
   298G11  C00R19857   6.148   3.323   6.172
   298G11  C00L19858   6.366   3.236   6.112
   298G11  C02819859   6.471   3.216   6.516
   298G11  C02319860   6.500   3.190   6.646
   298G11  C02419861   6.403   3.208   6.742
   298G11  C02119862   6.622   3.133   6.677
   298G11  C02219863   6.653   3.113   6.808
   298G11  C02H19864   6.550   3.132   6.907
   298G11  C03019865   6.567   3.088   7.038
   298G11  C03419866   6.686   3.028   7.067
   298G11  C02P19867   6.776   3.060   6.837
   298G11  C02B19868   6.869   3.012   6.737
   298G11  C01J19869   6.773   3.099   6.358
   298G11  C01X19870   7.066   2.909   6.275
   298G11  C01T19871   6.739   3.086   6.226
   298G11  H00919872   7.094   2.794   5.629
   298G11  C01P19873   6.841   2.960   5.775
   298G11  C01R19874   6.674   3.079   5.963
   298G11  C00Z19875   6.475   3.133   5.657
   298G11  O00019876   6.356   3.190   5.613
   298G11  C00M19877   6.456   3.187   6.014
   298G11  C00Y19878   6.270   3.238   5.705
   298G11  C01319879   6.151   3.305   5.671
   298G11  H00119880   6.126   3.320   5.567
   298G11  C00Q19881   6.237   3.276   6.073
   298G11  C00119882   6.054   3.349   5.762
   298G11  C00019883   5.944   3.432   5.725
   298G11  H00619884   5.926   3.455   5.621
   298G11  C00W19885   6.019   3.361   6.133
   298G11  C01G19886   5.851   3.466   5.816
   298G11  H00519887   5.763   3.520   5.785
   298G11  C01C19888   5.604   3.461   5.952
   298G11  H00219889   5.580   3.470   5.847
   298G11  C01B19890   5.503   3.457   6.054
   298G11  C01D19891   5.364   3.444   6.029
   298G11  H00319892   5.323   3.453   5.930
   298G11  C01E19893   5.289   3.435   6.142
   298G11  H00419894   5.181   3.427   6.137
   298G11  O00219895   5.339   3.443   6.276
   298G11  C01A19896   5.559   3.449   6.184
   298G11  C00V19897   5.932   3.404   6.242
   298G11  C01919898   5.477   3.436   6.298
   298G11  C02E19899   5.342   3.367   6.889
   298G11  C0FX19900   5.238   3.364   6.982
   298G11  C0FW19901   5.266   3.328   7.115
   298G11  C0GB19902   5.108   3.392   6.934
   298G11  C0G319903   5.471   3.348   6.936
   298G11  C07H19904   5.495   3.303   7.064
   298G11  C0GC19905   5.080   3.418   6.802
   298G11  C0G219906   5.009   3.404   7.033
   298G11  C0G119907   5.035   3.366   7.161
   298G11  C0FB19908   4.833   3.310   7.462
   298G11  C0F219909   5.092   3.223   7.549
   298G11  C0FY19910   5.160   3.326   7.201
   298G11  C0F519911   5.324   3.193   7.501
   298G11  C0FV19912   5.393   3.299   7.152
   298G11  C07919913   5.559   3.178   7.454
   298G11  C07A19914   5.798   3.157   7.412
   298G11  C06Y19915   6.007   3.160   7.228
   298G11  C07D19916   5.624   3.280   7.108
   298G11  C01F19917   5.574   3.347   6.841
   298G11  C00A19918   5.665   3.404   6.624
   298G11  C00X19919   5.886   3.416   6.463
   298G11  C00F19920   6.130   3.326   6.543
   298G11  C02919921   5.944   3.305   6.850
   298G11  C02519922   6.276   3.255   6.709
   298G11  C06U19923   6.090   3.212   7.012
   298G11  C02A19924   6.426   3.174   6.871
   298G11  C05Y19925   6.463   3.077   7.124
   298G11  C05Z19926   6.485   3.025   7.250
   298G11  C06019927   6.605   2.966   7.281
   298G11  C06219928   6.619   2.886   7.398
   298G11  C06T19929   6.111   3.162   7.140
   298G11  C06A19930   6.381   3.015   7.344
   298G11  C06Z19931   6.031   3.107   7.359
   298G11  C06Q19932   6.069   2.995   7.609
   298G11  C06819933   6.400   2.948   7.466
   298G11  C06719934   6.518   2.879   7.494
   298G11  C06319935   6.534   2.641   7.845
   298G11  C06C19936   6.530   2.552   7.954
   298G11  C06D19937   6.636   2.474   7.989
   298G11  C06E19938   6.641   2.374   8.083
   298G11  C07Q19939   6.531   2.356   8.162
   298G11  C07P19940   6.422   2.446   8.143
   298G11  C07T19941   6.311   2.433   8.226
   298G11  C07U19942   6.206   2.520   8.201
   298G11  C07V19943   6.096   2.497   8.283
   298G11  C08419944   6.093   2.401   8.389
   298G11  C08C19945   6.207   2.321   8.405
   298G11  C08B19946   6.194   2.210   8.487
   298G11  C08A19947   6.300   2.122   8.489
   298G11  C08919948   6.416   2.133   8.416
   298G11  C08819949   6.522   2.037   8.431
   298G11  C08719950   6.639   2.054   8.357
   298G11  C08619951   6.639   2.163   8.266
   298G11  C08X19952   6.508   1.920   8.515
   298G11  C08T19953   6.372   1.895   8.564
   298G11  C08D19954   6.425   2.243   8.333
   298G11  C08U19955   6.289   2.002   8.559
   298G11  C08V19956   6.170   1.968   8.616
   298G11  C0CY19957   6.063   2.055   8.618
   298G11  C0CX19958   5.943   2.006   8.677
   298G11  C0CW19959   5.838   2.090   8.667
   298G11  C0CV19960   5.847   2.212   8.596
   298G11  C0D419961   5.971   2.256   8.539
   298G11  C0CU19962   5.731   2.286   8.575
   298G11  C0CT19963   5.608   2.249   8.628
   298G11  C0CS19964   5.607   2.130   8.696
   298G11  C0D619965   5.743   2.394   8.494
   298G11  C0EC19966   5.854   2.438   8.430
   298G11  C07X19967   5.858   2.539   8.329
   298G11  C0DL19968   5.627   2.449   8.451
   298G11  C0DK19969   5.620   2.540   8.348
   298G11  C0DN19970   5.492   2.569   8.324
   298G11  C0D819971   5.497   2.413   8.483
   298G11  C08W19972   6.166   1.838   8.661
   298G11  C0CQ19973   6.051   1.784   8.726
   298G11  C09319974   6.080   2.173   8.550
   298G11  C09219975   5.973   2.369   8.454
   298G11  C08519976   6.315   2.335   8.325
   298G11  C07S19977   6.533   2.256   8.254
   298G11  C06F19978   6.751   2.295   8.108
   298G11  C07O19979   6.419   2.540   8.035
   298G11  C07N19980   6.311   2.625   8.013
   298G11  C05D19981   6.744   2.500   7.914
   298G11  C05C19982   6.862   2.439   7.953
   298G11  C05N19983   6.954   2.469   7.853
   298G11  C05M19984   6.881   2.668   7.534
   298G11  C05I19985   6.738   2.813   7.418
   298G11  C06119986   6.707   2.973   7.187
   298G11  C02Q19987   6.784   3.021   6.966
   298G11  C02O19988   6.981   2.934   6.757
   298G11  C03Q19989   7.018   2.818   7.097
   298G11  C03O19990   7.148   2.621   7.153
   298G11  C03L19991   7.396   2.441   6.967
   298G11  C02S19992   7.191   2.708   6.800
   298G11  C02T19993   7.335   2.623   6.581
   298G11  C03K19994   7.476   2.392   6.856
   298G11  C03I19995   7.411   2.581   6.472
   298G11  C03G19996   7.546   2.480   6.253
   298G11  H00D19997   7.572   2.427   6.163
   298G11  C03J19998   7.616   2.306   6.617
   298G11  C03W19999   7.812   2.102   6.624
   298G11  C04I20000   7.760   2.059   6.853
   298G11  C04K20001   7.794   1.940   7.103
   298G11  C04N20002   7.789   1.884   7.227
   298G11  C04X20003   7.704   1.865   7.459
   298G11  C05020004   7.612   1.842   7.694
   298G11  C05W20005   7.471   2.086   7.635
   298G11  C05S20006   7.299   1.910   8.047
   298G11  C05R20007   7.279   2.197   7.844
   298G11  C05O20008   7.063   2.387   7.843
   298G11  C05B20009   6.861   2.325   8.035
   298G11  C05A20010   7.110   2.065   8.101
   298G11  C07R20011   6.755   2.179   8.188
   298G11  C08N20012   6.745   1.962   8.366
   298G11  C08M20013   6.735   1.854   8.456
   298G11  C08L20014   6.849   1.764   8.471
   298G11  C09120015   7.167   1.925   8.121
   298G11  C09K20016   7.193   1.611   8.229
   298G11  H00M20017   7.212   1.589   8.125
   298G11  C08K20018   6.965   1.786   8.391
   298G11  C09J20019   7.175   1.511   8.331
   298G11  C09I20020   7.130   1.376   8.330
   298G11  C09L20021   7.182   1.262   8.258
   298G11  H00N20022   7.254   1.261   8.177
   298G11  C09Q20023   7.125   1.143   8.287
   298G11  H00O20024   7.164   1.056   8.236
   298G11  O00B20025   7.025   1.119   8.379
   298G11  C09G20026   6.964   1.222   8.447
   298G11  C09F20027   6.843   1.188   8.511
   298G11  O00A20028   6.801   1.057   8.494
   298G11  C09P20029   6.706   1.027   8.588
   298G11  H00P20030   6.722   0.956   8.668
   298G11  C09O20031   6.596   1.113   8.605
   298G11  C09D20032   6.637   1.244   8.637
   298G11  C09C20033   6.552   1.345   8.704
   298G11  C09N20034   6.414   1.355   8.745
   298G11  C09T20035   6.314   1.282   8.676
   298G11  C09S20036   6.343   1.147   8.629
   298G11  C0CP20037   6.213   1.104   8.596
   298G11  C0CN20038   6.112   1.186   8.653
   298G11  C0CO20039   5.979   1.159   8.624
   298G11  H01420040   5.906   1.236   8.639
   298G11  C0CZ20041   5.954   1.039   8.549
   298G11  H01520042   5.851   1.035   8.516
   298G11  C0D020043   6.053   0.936   8.527
   298G11  C0G520044   6.029   0.804   8.477
   298G11  H01F20045   5.928   0.769   8.467
   298G11  C0G420046   6.133   0.723   8.471
   298G11  H01G20047   6.107   0.621   8.448
   298G11  O00H20048   6.270   0.758   8.485
   298G11  C0D220049   6.293   0.879   8.536
   298G11  C09V20050   6.430   0.928   8.557
   298G11  H00Q20051   6.510   0.858   8.540
   298G11  C0D120052   6.189   0.970   8.552
   298G11  C09R20053   6.458   1.064   8.602
   298G11  C09H20054   7.030   1.352   8.436
   298G11  C09E20055   6.770   1.285   8.590
   298G11  C09B20056   6.599   1.472   8.726
   298G11  C08Z20057   6.831   1.648   8.550
   298G11  C08O20058   6.615   1.832   8.533
   298G11  C09A20059   6.506   1.557   8.779
   298G11  C08S20060   6.297   1.791   8.628
   298G11  C09920061   6.387   1.489   8.794
   298G11  C09U20062   6.171   1.300   8.708
   298G11  C0BO20063   5.774   1.444   8.935
   298G11  C0CL20064   6.040   1.649   8.770
   298G11  C0D320065   5.940   1.874   8.731
   298G11  C0D520066   5.717   2.050   8.714
   298G11  C0BR20067   5.685   1.667   8.891
   298G11  C0BQ20068   5.671   1.537   8.943
   298G11  C0BL20069   5.635   1.284   9.067
   298G11  C0AF20070   5.424   1.233   9.230
   298G11  C0BH20071   5.336   1.568   9.091
   298G11  C0BG20072   5.223   1.649   9.077
   298G11  C0BD20073   5.101   1.496   9.224
   298G11  C0AG20074   5.310   1.215   9.303
   298G11  C0AI20075   5.186   1.053   9.428
   298G11  C0AV20076   4.935   0.953   9.484
   298G11  C0BB20077   4.874   1.320   9.449
   298G11  O00C20078   4.699   1.009   9.477
   298G11  C0BC20079   4.752   1.376   9.428
   298G11  C0B920080   4.979   1.462   9.288
   298G11  O00E20081   4.753   1.709   9.146
   298G11  C0CA20082   4.746   1.819   9.074
   298G11  O00F20083   4.633   1.866   9.061
   298G11  C0BF20084   5.104   1.608   9.143
   298G11  C0C520085   4.876   1.870   9.022
   298G11  C0C420086   4.885   1.997   8.966
   298G11  H01120087   4.797   2.058   8.957
   298G11  C0C820088   5.230   1.766   9.003
   298G11  C0C220089   5.008   2.041   8.918
   298G11  C0C320090   5.026   2.165   8.849
   298G11  C0DY20091   4.932   2.273   8.843
   298G11  H01620092   4.830   2.278   8.877
   298G11  C0DX20093   5.005   2.377   8.776
   298G11  C0DW20094   4.949   2.504   8.757
   298G11  C0BY20095   5.362   1.927   8.884
   298G11  C0DB20096   5.141   2.198   8.781
   298G11  C0CC20097   5.484   2.086   8.744
   298G11  C0D720098   5.488   2.316   8.590
   298G11  C0DZ20099   5.130   2.326   8.724
   298G11  C0DM20100   5.408   2.499   8.409
   298G11  C0DQ20101   5.084   2.565   8.544
   298G11  C0DV20102   4.975   2.574   8.636
   298G11  C0E020103   4.822   2.549   8.806
   298G11  C0FO20104   4.675   2.865   8.732
   298G11  C0E320105   4.795   2.606   8.936
   298G11  H01720106   4.860   2.596   9.022
   298G11  C0GV20107   4.652   2.932   8.849
   298G11  C0ES20108   4.747   2.938   8.628
   298G11  C0GQ20109   4.693   3.282   8.752
   298G11  C0FJ20110   4.778   3.366   8.410
   298G11  C0ED20111   4.839   3.092   8.410
   298G11  C0ER20112   4.810   3.119   8.055
   298G11  C0EP20113   5.024   3.054   8.011
   298G11  C0E620114   4.985   2.883   8.349
   298G11  C0DE20115   5.244   2.727   8.247
   298G11  C0EA20116   5.275   2.994   7.968
   298G11  C0DF20117   5.357   2.693   8.165
   298G11  C08020118   5.599   2.915   8.013
   298G11  C0DO20119   5.479   2.654   8.219
   298G11  C0DJ20120   5.738   2.596   8.289
   298G11  C07K20121   5.857   2.836   8.023
   298G11  C07W20122   5.977   2.573   8.262
   298G11  C08320123   6.202   2.614   8.097
   298G11  C07J20124   5.970   2.854   7.946
   298G11  C06O20125   6.195   2.862   7.762
   298G11  C06M20126   6.316   2.706   7.903
   308G11  C07120127   1.745   1.593  15.103
   308G11  C07L20128   1.885   1.639  15.120
   308G11  C07M20129   1.915   1.767  15.151
   308G11  C07Y20130   2.047   1.808  15.158
   308G11  C08120131   2.153   1.713  15.142
   308G11  C08220132   2.284   1.764  15.144
   308G11  C0DI20133   2.413   1.691  15.140
   308G11  C0DH20134   2.453   1.559  15.143
   308G11  C0DG20135   2.595   1.546  15.148
   308G11  C0E920136   2.688   1.453  15.071
   308G11  C0E820137   2.809   1.544  15.053
   308G11  C0E720138   2.951   1.506  15.058
   308G11  C0EB20139   2.987   1.366  15.075
   308G11  C0EF20140   3.116   1.316  15.121
   308G11  C0EE20141   3.208   1.378  15.209
   308G11  C0FD20142   3.251   1.315  15.326
   308G11  C0FE20143   3.179   1.212  15.392
   308G11  H01B20144   3.087   1.178  15.347
   308G11  C0FF20145   3.223   1.161  15.516
   308G11  H01A20146   3.177   1.080  15.571
   308G11  C0FG20147   3.339   1.217  15.574
   308G11  H01820148   3.362   1.169  15.669
   308G11  C0FH20149   3.419   1.314  15.506
   308G11  C0FI20150   3.546   1.367  15.551
   308G11  H01920151   3.578   1.319  15.642
   308G11  O00K20152   3.616   1.470  15.497
   308G11  C0FL20153   3.564   1.515  15.384
   308G11  C0FK20154   3.436   1.473  15.323
   308G11  C0FM20155   3.383   1.541  15.211
   308G11  C0FN20156   3.453   1.646  15.152
   308G11  C0FP20157   3.573   1.693  15.218
   308G11  C0GO20158   3.640   1.810  15.176
   308G11  C0GN20159   3.746   1.874  15.238
   308G11  C0GR20160   3.802   1.795  15.346
   308G11  C0GS20161   3.910   1.848  15.417
   308G11  H01Q20162   3.949   1.784  15.494
   308G11  C0GT20163   3.965   1.975  15.380
   308G11  H01O20164   4.050   2.016  15.433
   308G11  C0GU20165   3.896   2.055  15.284
   308G11  H01P20166   3.922   2.158  15.264
   308G11  O00L20167   3.742   1.679  15.389
   308G11  C0GM20168   3.792   2.004  15.202
   308G11  C0GL20169   3.737   2.067  15.082
   308G11  H01R20170   3.772   2.164  15.052
   308G11  C0GK20171   3.636   1.998  15.017
   308G11  C0GP20172   3.538   2.032  14.916
   308G11  C0E220173   3.465   1.911  14.885
   308G11  C0E120174   3.336   1.953  14.842
   308G11  C0DU20175   3.212   1.901  14.893
   308G11  C0DT20176   3.187   1.766  14.934
   308G11  C0E420177   3.276   1.687  15.000
   308G11  C0E520178   3.205   1.585  15.058
   308G11  C0DS20179   3.063   1.729  14.972
   308G11  C0DR20180   2.964   1.828  14.982
   308G11  C0DD20181   2.838   1.818  15.040
   308G11  C0DC20182   2.786   1.957  15.048
   308G11  C0DP20183   2.877   2.059  14.997
   308G11  C0DA20184   2.866   2.207  14.996
   308G11  C0D920185   2.752   2.298  15.042
   308G11  C0CR20186   2.768   2.442  15.042
   308G11  C0C020187   2.880   2.502  15.003
   308G11  C0BZ20188   2.907   2.642  14.997
   308G11  C0C120189   3.033   2.693  14.962
   308G11  C0C720190   3.053   2.833  14.956
   308G11  C0C620191   3.177   2.883  14.915
   308G11  C0C920192   3.197   3.017  14.919
   308G11  C0B820193   3.316   3.068  14.878
   308G11  C0B720194   3.343   3.208  14.881
   308G11  C0B620195   3.468   3.282  14.867
   308G11  C0B520196   3.597   3.231  14.891
   308G11  H00Z20197   3.614   3.125  14.905
   308G11  C0B420198   3.677   3.349  14.942
   308G11  H01020199   3.762   3.343  15.009
   308G11  C0B320200   3.592   3.462  14.939
   308G11  C0AP20201   3.558   3.591  15.002
   308G11  C0AQ20202   3.421   3.603  14.982
   308G11  C0AR20203   3.340   3.682  15.066
   308G11  C0AS20204   3.210   3.635  15.063
   308G11  C0AT20205   3.163   3.512  15.003
   308G11  C0BA20206   3.252   3.431  14.938
   308G11  C0AU20207   3.048   3.456  15.050
   308G11  C0BE20208   3.015   3.322  15.019
   308G11  C0BI20209   2.897   3.270  15.071
   308G11  C0BJ20210   2.812   3.345  15.158
   308G11  C0BK20211   2.695   3.293  15.201
   308G11  C0BW20212   2.666   3.162  15.168
   308G11  C0BV20213   2.760   3.079  15.111
   308G11  C0BU20214   2.731   2.946  15.097
   308G11  C0BX20215   2.829   2.864  15.040
   308G11  C0BT20216   2.608   2.899  15.123
   308G11  C0CD20217   2.584   2.763  15.110
   308G11  C0CB20218   2.686   2.672  15.082
   308G11  C0CE20219   2.454   2.711  15.140
   308G11  C0CK20220   2.350   2.798  15.178
   308G11  C0BS20221   2.375   2.936  15.196
   308G11  C0CJ20222   2.275   3.020  15.254
   308G11  C0BP20223   2.312   3.149  15.295
   308G11  C0CI20224   2.223   3.237  15.356
   308G11  C0CH20225   2.279   3.357  15.414
   308G11  H01220226   2.210   3.421  15.468
   308G11  C0BN20227   2.414   3.398  15.402
   308G11  C0CG20228   2.469   3.506  15.471
   308G11  C0CF20229   2.388   3.584  15.565
   308G11  H01320230   2.287   3.550  15.582
   308G11  O00G20231   2.429   3.708  15.619
   308G11  C0AA20232   2.562   3.737  15.595
   308G11  C0A920233   2.612   3.841  15.671
   308G11  H00U20234   2.559   3.886  15.754
   308G11  C0A820235   2.735   3.896  15.640
   308G11  H00V20236   2.768   3.959  15.721
   308G11  C0A720237   2.815   3.847  15.534
   308G11  C0A620238   2.769   3.729  15.458
   308G11  C0A520239   2.836   3.655  15.358
   308G11  C0A420240   2.961   3.705  15.304
   308G11  C0A320241   3.062   3.801  15.345
   308G11  C0A220242   3.068   3.878  15.459
   308G11  C0A120243   3.157   3.987  15.472
   308G11  C0A020244   3.296   4.017  15.423
   308G11  C09Z20245   3.355   4.130  15.475
   308G11  C09Y20246   3.491   4.155  15.448
   308G11  H00Y20247   3.538   4.245  15.486
   308G11  C09X20248   3.573   4.061  15.374
   308G11  C09W20249   3.710   4.088  15.364
   308G11  H00R20250   3.748   4.176  15.413
   308G11  C0AX20251   3.792   3.995  15.303
   308G11  H00S20252   3.895   4.023  15.290
   308G11  C0AW20253   3.732   3.885  15.243
   308G11  H00T20254   3.792   3.817  15.184
   308G11  C0AN20255   3.593   3.868  15.237
   308G11  C0AO20256   3.530   3.768  15.166
   308G11  C0AM20257   3.515   3.954  15.313
   308G11  C0B220258   3.291   4.234  15.554
   308G11  O00D20259   3.340   4.344  15.588
   308G11  C0B120260   3.158   4.204  15.595
   308G11  H00W20261   3.109   4.255  15.676
   308G11  C0AL20262   3.372   3.934  15.334
   308G11  C0AK20263   3.314   3.833  15.250
   308G11  C0B020264   3.096   4.084  15.555
   308G11  C0AZ20265   2.966   4.037  15.597
   308G11  H00X20266   2.900   4.091  15.663
   308G11  C0AJ20267   3.173   3.791  15.250
   308G11  C0AH20268   3.010   3.647  15.185
   308G11  C0AE20269   2.783   3.538  15.301
   308G11  C0AD20270   2.663   3.488  15.343
   308G11  C0AY20271   2.945   3.911  15.526
   308G11  C0AB20272   2.641   3.674  15.493
   308G11  C0AC20273   2.589   3.560  15.434
   308G11  C0BM20274   2.492   3.317  15.320
   308G11  C0CM20275   2.085   3.205  15.344
   308G11  C09M20276   2.042   3.070  15.329
   308G11  C09820277   1.914   3.029  15.399
   308G11  C08R20278   1.825   2.920  15.380
   308G11  C08Q20279   1.716   2.907  15.473
   308G11  C08P20280   1.583   2.848  15.472
   308G11  C08Y20281   1.476   2.929  15.523
   308G11  C09720282   1.501   3.060  15.553
   308G11  C09620283   1.393   3.141  15.510
   308G11  C09020284   1.279   3.053  15.491
   308G11  C09520285   1.157   3.083  15.424
   308G11  C09420286   1.051   2.990  15.404
   308G11  C08J20287   1.051   2.849  15.401
   308G11  C08I20288   0.962   2.807  15.294
   308G11  C08H20289   1.000   2.678  15.245
   308G11  C08G20290   1.132   2.653  15.303
   308G11  C08F20291   1.230   2.547  15.301
   308G11  C08E20292   1.193   2.413  15.276
   308G11  C05920293   1.062   2.362  15.267
   308G11  C05820294   1.037   2.218  15.272
   308G11  C05720295   0.914   2.154  15.234
   308G11  C05620296   0.813   2.244  15.200
   308G11  C05520297   0.813   2.376  15.237
   308G11  C05420298   0.714   2.446  15.164
   308G11  C05320299   0.656   2.349  15.072
   308G11  C05220300   0.572   2.370  14.957
   308G11  C05120301   0.541   2.510  14.909
   308G11  C05U20302   0.596   2.639  14.962
   308G11  C05T20303   0.689   2.671  15.067
   308G11  C06K20304   0.672   2.813  15.091
   308G11  H00J20305   0.712   2.862  15.178
   308G11  C06L20306   0.584   2.864  14.998
   308G11  H00I20307   0.558   2.967  14.978
   308G11  C05V20308   0.537   2.758  14.919
   308G11  C06J20309   0.450   2.768  14.815
   308G11  H00K20310   0.410   2.866  14.795
   308G11  C05X20311   0.406   2.650  14.746
   308G11  C06I20312   0.319   2.656  14.630
   308G11  H00L20313   0.282   2.753  14.599
   308G11  C04Z20314   0.285   2.545  14.552
   308G11  C06H20315   0.208   2.561  14.431
   308G11  H00H20316   0.163   2.654  14.399
   308G11  C04Y20317   0.188   2.445  14.350
   308G11  C06G20318   0.120   2.461  14.225
   308G11  O00920319   0.071   2.565  14.181
   308G11  O00820320   0.120   2.355  14.148
   308G11  C04P20321   0.157   2.232  14.186
   308G11  C04J20322   0.151   2.111  14.103
   308G11  C04Q20323   0.103   2.097  13.971
   308G11  H00E20324   0.059   2.186  13.927
   308G11  C04M20325   0.100   1.979  13.895
   308G11  C04R20326   0.058   1.959  13.762
   308G11  H00F20327   0.032   2.038  13.694
   308G11  C04S20328   0.040   1.840  13.711
   308G11  H00G20329   0.000   1.839  13.610
   308G11  O00720330   0.060   1.720  13.779
   308G11  C03V20331   0.112   1.738  13.909
   308G11  C03U20332   0.157   1.626  13.974
   308G11  O00620333   0.127   1.507  13.908
   308G11  C03F20334   0.174   1.391  13.961
   308G11  C03E20335   0.241   1.386  14.084
   308G11  C03D20336   0.264   1.504  14.156
   308G11  C03C20337   0.329   1.506  14.277
   308G11  C03B20338   0.378   1.379  14.314
   308G11  C03A20339   0.454   1.372  14.432
   308G11  C03920340   0.484   1.492  14.509
   308G11  C03820341   0.577   1.444  14.606
   308G11  C03720342   0.592   1.306  14.574
   308G11  C03620343   0.660   1.227  14.658
   308G11  C02R20344   0.696   1.096  14.638
   308G11  C03520345   0.798   1.077  14.740
   308G11  C03R20346   0.816   1.189  14.822
   308G11  C03S20347   0.946   1.228  14.877
   308G11  C04920348   0.956   1.366  14.906
   308G11  C04820349   0.854   1.454  14.868
   308G11  C03P20350   0.741   1.420  14.788
   308G11  C04720351   0.873   1.581  14.924
   308G11  C04620352   0.784   1.682  14.931
   308G11  C04520353   0.671   1.701  14.860
   308G11  C03T20354   0.610   1.628  14.758
   308G11  C04420355   0.509   1.705  14.701
   308G11  C04320356   0.489   1.813  14.787
   308G11  C04220357   0.446   1.924  14.707
   308G11  C04120358   0.397   1.859  14.587
   308G11  C04020359   0.327   1.927  14.488
   308G11  C03Z20360   0.290   1.868  14.363
   308G11  C04H20361   0.238   1.979  14.288
   308G11  C04G20362   0.252   2.093  14.358
   308G11  C03N20363   0.289   1.743  14.298
   308G11  C03Y20364   0.237   1.746  14.165
   308G11  C03X20365   0.194   1.863  14.093
   308G11  C04F20366   0.308   2.068  14.486
   308G11  C04E20367   0.342   2.179  14.568
   308G11  C04O20368   0.303   2.305  14.519
   308G11  C04D20369   0.409   2.170  14.696
   308G11  C04V20370   0.443   2.284  14.762
   308G11  C04W20371   0.401   2.417  14.719
   308G11  C04C20372   0.450   2.057  14.769
   308G11  C04L20373   0.521   2.118  14.889
   308G11  C04U20374   0.591   2.042  14.985
   308G11  C05Q20375   0.682   2.096  15.076
   308G11  C05P20376   0.777   1.999  15.113
   308G11  C04T20377   0.757   1.886  15.040
   308G11  C04B20378   0.637   1.911  14.969
   308G11  C03M20379   0.439   1.719  14.578
   308G11  C04A20380   0.595   1.815  14.874
   308G11  C05H20381   0.837   1.778  15.014
   308G11  C05G20382   0.966   1.738  15.064
   308G11  C05F20383   1.032   1.797  15.171
   308G11  C05E20384   1.173   1.784  15.177
   308G11  C05L20385   1.271   1.690  15.124
   308G11  C05K20386   1.232   1.570  15.058
   308G11  C05J20387   1.110   1.532  15.003
   308G11  C06620388   1.340   1.479  15.043
   308G11  C06520389   1.475   1.519  15.065
   308G11  C06420390   1.504   1.641  15.117
   308G11  C06N20391   1.582   1.425  15.041
   308G11  C06920392   1.554   1.292  14.999
   308G11  C06P20393   1.659   1.207  14.977
   308G11  C06R20394   1.638   1.080  14.923
   308G11  C06B20395   1.510   1.036  14.897
   308G11  C06S20396   1.485   0.910  14.840
   308G11  C02G20397   1.356   0.874  14.800
   308G11  C02F20398   1.334   0.760  14.728
   308G11  C02720399   1.445   0.679  14.699
   308G11  C02620400   1.421   0.570  14.614
   308G11  C00E20401   1.530   0.491  14.575
   308G11  C00D20402   1.516   0.384  14.484
   308G11  C00C20403   1.625   0.312  14.450
   308G11  C00B20404   1.754   0.334  14.488
   308G11  C01520405   1.772   0.433  14.580
   308G11  C07F20406   1.897   0.469  14.615
   308G11  C07E20407   1.916   0.582  14.698
   308G11  C06W20408   1.809   0.662  14.735
   308G11  C06V20409   1.682   0.627  14.693
   308G11  C06X20410   1.827   0.780  14.802
   308G11  C07B20411   1.960   0.825  14.826
   308G11  C07C20412   2.066   0.743  14.789
   308G11  C0FU20413   2.195   0.786  14.821
   308G11  C0F720414   2.302   0.702  14.796
   308G11  C0F620415   2.432   0.744  14.830
   308G11  C0F820416   2.544   0.659  14.807
   308G11  C0F920417   2.669   0.695  14.855
   308G11  C0FA20418   2.773   0.609  14.838
   308G11  C0FZ20419   2.747   0.482  14.780
   308G11  C0G020420   2.847   0.380  14.775
   308G11  C0GD20421   2.981   0.409  14.822
   308G11  C0FC20422   2.996   0.536  14.881
   308G11  C0GH20423   3.127   0.571  14.924
   308G11  C0EY20424   3.151   0.703  14.958
   308G11  C0EX20425   3.287   0.738  15.000
   308G11  C0EW20426   3.311   0.870  15.045
   308G11  C0FR20427   3.443   0.913  15.075
   308G11  H01D20428   3.473   1.016  15.085
   308G11  C0FS20429   3.551   0.826  15.053
   308G11  H01C20430   3.655   0.851  15.066
   308G11  C0GJ20431   3.522   0.691  15.020
   308G11  H01N20432   3.605   0.624  15.002
   308G11  C0EV20433   3.209   0.962  15.046
   308G11  C0FT20434   3.231   1.094  15.094
   308G11  H01E20435   3.320   1.119  15.149
   308G11  C0EU20436   3.080   0.923  15.002
   308G11  C0ET20437   2.978   1.013  14.999
   308G11  C0EI20438   2.844   0.987  14.969
   308G11  C0F120439   2.818   0.853  14.934
   308G11  C0F020440   2.924   0.761  14.921
   308G11  C0EH20441   2.744   1.088  14.985
   308G11  C0EG20442   2.769   1.222  15.021
   308G11  C0EJ20443   2.611   1.043  14.968
   308G11  C0F320444   2.585   0.913  14.918
   308G11  C0EK20445   2.502   1.124  15.003
   308G11  C0EL20446   2.523   1.260  15.045
   308G11  C0EM20447   2.400   1.327  15.082
   308G11  C0EN20448   2.278   1.261  15.076
   308G11  C07I20449   2.176   1.352  15.080
   308G11  C07420450   2.046   1.323  15.044
   308G11  C07320451   1.947   1.416  15.068
   308G11  C07220452   1.815   1.376  15.046
   308G11  C07520453   2.022   1.195  15.002
   308G11  C07620454   2.130   1.110  14.975
   308G11  C07820455   2.109   0.987  14.921
   308G11  C07G20456   1.894   1.158  14.971
   308G11  C07020457   1.872   1.031  14.923
   308G11  C07Z20458   2.219   1.478  15.113
   308G11  C07720459   2.257   1.143  15.006
   308G11  C0EO20460   2.375   1.074  14.974
   308G11  C0F420461   2.351   0.951  14.914
   308G11  C0EQ20462   3.006   1.145  15.041
   308G11  C0FQ20463   3.392   0.646  14.995
   308G11  C0GI20464   3.360   0.517  14.965
   308G11  H01L20465   3.440   0.445  14.959
   308G11  C0EZ20466   3.051   0.796  14.954
   308G11  C0GG20467   3.230   0.475  14.930
   308G11  C0GF20468   3.211   0.349  14.874
   308G11  H01M20469   3.292   0.278  14.875
   308G11  C0GE20470   3.088   0.316  14.820
   308G11  H01K20471   3.069   0.219  14.776
   308G11  O00J20472   2.825   0.252  14.737
   308G11  C0GA20473   2.708   0.225  14.672
   308G11  C0G920474   2.684   0.093  14.621
   308G11  H01H20475   2.769   0.027  14.620
   308G11  C0G820476   2.558   0.053  14.575
   308G11  C0G720477   2.522  -0.078  14.528
   308G11  H01I20478   2.598  -0.152  14.552
   308G11  O00I20479   2.399  -0.112  14.475
   308G11  C0G620480   2.298  -0.011  14.477
   308G11  H01J20481   2.199  -0.047  14.452
   308G11  C02D20482   2.326   0.121  14.527
   308G11  C02C20483   2.223   0.215  14.528
   308G11  C01720484   2.097   0.194  14.458
   308G11  C01620485   1.985   0.279  14.492
   308G11  O00120486   2.074   0.100  14.365
   308G11  C01820487   1.956   0.096  14.289
   308G11  C00920488   1.836   0.151  14.344
   308G11  C00820489   1.702   0.133  14.297
   308G11  C00720490   1.637   0.064  14.189
   308G11  C00620491   1.706  -0.004  14.081
   308G11  C00520492   1.653  -0.044  13.958
   308G11  C00420493   1.518  -0.031  13.910
   308G11  C00320494   1.397   0.033  13.968
   308G11  C00220495   1.275   0.032  13.892
   308G11  C00P20496   1.159   0.105  13.929
   308G11  C00O20497   1.044   0.115  13.849
   308G11  C00N20498   0.935   0.192  13.888
   308G11  C01020499   0.822   0.200  13.806
   308G11  C01120500   0.712   0.279  13.836
   308G11  C01Q20501   0.597   0.278  13.755
   308G11  C01U20502   0.585   0.200  13.642
   308G11  C01220503   0.700   0.122  13.610
   308G11  H00020504   0.702   0.058  13.523
   308G11  C01V20505   0.460   0.202  13.575
   308G11  H00720506   0.447   0.146  13.483
   308G11  O00520507   0.347   0.277  13.611
   308G11  C01W20508   0.362   0.350  13.718
   308G11  C03120509   0.245   0.408  13.768
   308G11  C03220510   0.251   0.474  13.894
   308G11  H00A20511   0.166   0.527  13.933
   308G11  C03320512   0.370   0.478  13.968
   308G11  H00B20513   0.356   0.533  14.060
   308G11  C01O20514   0.491   0.434  13.907
   308G11  C01N20515   0.609   0.451  13.977
   308G11  C01M20516   0.624   0.546  14.092
   308G11  C01L20517   0.582   0.676  14.157
   308G11  C01K20518   0.644   0.682  14.282
   308G11  C01Y20519   0.650   0.798  14.366
   308G11  C02I20520   0.568   0.906  14.339
   308G11  C02N20521   0.581   1.016  14.425
   308G11  C02M20522   0.510   1.133  14.390
   308G11  C02L20523   0.428   1.136  14.278
   308G11  C02K20524   0.426   1.024  14.192
   308G11  C02U20525   0.337   1.035  14.083
   308G11  C02V20526   0.266   1.150  14.052
   308G11  C03H20527   0.166   1.153  13.958
   308G11  H00C20528   0.115   1.066  13.918
   308G11  C02W20529   0.340   0.933  13.991
   308G11  C02X20530   0.424   0.822  14.016
   308G11  C02Y20531   0.417   0.755  13.891
   308G11  H00820532   0.487   0.684  13.849
   308G11  C02Z20533   0.305   0.809  13.810
   308G11  O00420534   0.255   0.766  13.710
   308G11  O00320535   0.275   0.929  13.875
   308G11  C02J20536   0.495   0.906  14.218
   308G11  C01Z20537   0.759   0.797  14.455
   308G11  C02020538   0.854   0.697  14.455
   308G11  C01I20539   0.848   0.593  14.371
   308G11  C01H20540   0.952   0.513  14.333
   308G11  C00K20541   0.946   0.428  14.224
   308G11  C01S20542   0.836   0.425  14.140
   308G11  C01420543   0.828   0.347  14.031
   308G11  C00J20544   1.051   0.347  14.195
   308G11  C00I20545   1.162   0.347  14.273
   308G11  C00H20546   1.170   0.439  14.380
   308G11  C00G20547   1.287   0.451  14.454
   308G11  C00S20548   1.273   0.263  14.241
   308G11  C00T20549   1.380   0.283  14.316
   308G11  C00U20550   1.484   0.191  14.295
   308G11  C00R20551   1.271   0.179  14.130
   308G11  C00L20552   1.047   0.263  14.085
   308G11  C02820553   1.067   0.520  14.408
   308G11  C02320554   1.080   0.621  14.500
   308G11  C02420555   1.197   0.640  14.571
   308G11  C02120556   0.976   0.712  14.522
   308G11  C02220557   0.993   0.817  14.607
   308G11  C02H20558   1.110   0.829  14.683
   308G11  C03020559   1.131   0.937  14.771
   308G11  C03420560   1.029   1.019  14.797
   308G11  C02P20561   0.888   0.903  14.624
   308G11  C02B20562   0.770   0.899  14.539
   308G11  C01J20563   0.729   0.578  14.297
   308G11  C01X20564   0.500   0.792  14.125
   308G11  C01T20565   0.726   0.501  14.179
   308G11  H00920566   0.153   0.409  13.712
   308G11  C01P20567   0.485   0.361  13.786
   308G11  C01R20568   0.715   0.364  13.948
   308G11  C00Z20569   0.817   0.118  13.689
   308G11  O00020570   0.924   0.037  13.652
   308G11  C00M20571   0.935   0.266  14.000
   308G11  C00Y20572   1.035   0.036  13.735
   308G11  C01320573   1.148  -0.037  13.701
   308G11  H00120574   1.136  -0.094  13.610
   308G11  C00Q20575   1.157   0.180  14.051
   308G11  C00120576   1.266  -0.040  13.771
   308G11  C00020577   1.381  -0.109  13.725
   308G11  H00620578   1.390  -0.152  13.626
   308G11  C00W20579   1.383   0.100  14.092
   308G11  C01G20580   1.494  -0.104  13.795
   308G11  H00520581   1.566  -0.169  13.748
   308G11  C01C20582   1.762  -0.091  13.875
   308G11  H00220583   1.759  -0.116  13.770
   308G11  C01B20584   1.878  -0.068  13.956
   308G11  C01D20585   2.015  -0.074  13.911
   308G11  H00320586   2.021  -0.117  13.812
   308G11  C01E20587   2.111  -0.058  13.998
   308G11  H00420588   2.214  -0.087  13.985
   308G11  O00220589   2.093  -0.008  14.127
   308G11  C01A20590   1.851  -0.004  14.077
   308G11  C00V20591   1.499   0.112  14.180
   308G11  C01920592   1.968   0.028  14.161
   308G11  C02E20593   2.237   0.337  14.596
   308G11  C0FX20594   2.367   0.370  14.648
   308G11  C0FW20595   2.390   0.494  14.710
   308G11  C0GB20596   2.473   0.279  14.632
   308G11  C0G320597   2.134   0.423  14.618
   308G11  C07H20598   2.151   0.537  14.696
   308G11  C0GC20599   2.454   0.150  14.575
   308G11  C0G220600   2.598   0.316  14.675
   308G11  C0G120601   2.624   0.442  14.735
   308G11  C0FB20602   2.898   0.634  14.881
   308G11  C0F220603   2.686   0.821  14.908
   308G11  C0FY20604   2.518   0.530  14.749
   308G11  C0F520605   2.457   0.867  14.885
   308G11  C0FV20606   2.280   0.577  14.737
   308G11  C07920607   2.217   0.904  14.890
   308G11  C07A20608   1.980   0.945  14.889
   308G11  C06Y20609   1.721   0.865  14.838
   308G11  C07D20610   2.042   0.615  14.736
   308G11  C01F20611   2.005   0.390  14.576
   308G11  C00A20612   1.856   0.252  14.444
   308G11  C00X20613   1.607   0.210  14.356
   308G11  C00F20614   1.393   0.366  14.425
   308G11  C02920615   1.658   0.514  14.617
   308G11  C02520616   1.302   0.554  14.550
   308G11  C06U20617   1.576   0.712  14.732
   308G11  C02A20618   1.211   0.740  14.660
   308G11  C05Y20619   1.257   0.964  14.825
   308G11  C05Z20620   1.277   1.093  14.887
   308G11  C06020621   1.169   1.178  14.914
   308G11  C06220622   1.188   1.310  14.959
   308G11  C06T20623   1.594   0.826  14.807
   308G11  C06A20624   1.407   1.127  14.919
   308G11  C06Z20625   1.742   0.993  14.894
   308G11  C06Q20626   1.792   1.246  15.003
   308G11  C06820627   1.423   1.258  14.974
   308G11  C06720628   1.313   1.348  14.998
   308G11  C06320629   1.405   1.732  15.144
   308G11  C06C20630   1.444   1.860  15.194
   308G11  C06D20631   1.348   1.948  15.230
   308G11  C06E20632   1.372   2.087  15.252
   308G11  C07Q20633   1.500   2.134  15.241
   308G11  C07P20634   1.603   2.037  15.214
   308G11  C07T20635   1.735   2.079  15.207
   308G11  C07U20636   1.838   1.985  15.190
   308G11  C07V20637   1.965   2.033  15.176
   308G11  C08420638   1.991   2.170  15.169
   308G11  C08C20639   1.888   2.256  15.195
   308G11  C08B20640   1.916   2.392  15.194
   308G11  C08A20641   1.810   2.476  15.226
   308G11  C08920642   1.682   2.439  15.253
   308G11  C08820643   1.586   2.532  15.290
   308G11  C08720644   1.455   2.490  15.299
   308G11  C08620645   1.428   2.356  15.276
   308G11  C08X20646   1.627   2.666  15.318
   308G11  C08T20647   1.757   2.709  15.273
   308G11  C08D20648   1.657   2.303  15.245
   308G11  C08U20649   1.837   2.607  15.223
   308G11  C08V20650   1.968   2.652  15.208
   308G11  C0CY20651   2.076   2.568  15.180
   308G11  C0CX20652   2.201   2.618  15.184
   308G11  C0CW20653   2.306   2.530  15.155
   308G11  C0CV20654   2.281   2.395  15.144
   308G11  C0D420655   2.150   2.346  15.162
   308G11  C0CU20656   2.388   2.308  15.128
   308G11  C0CT20657   2.516   2.349  15.097
   308G11  C0CS20658   2.535   2.483  15.102
   308G11  C0D620659   2.356   2.178  15.138
   308G11  C0EC20660   2.225   2.127  15.153
   308G11  C07X20661   2.199   1.989  15.159
   308G11  C0DL20662   2.456   2.087  15.129
   308G11  C0DK20663   2.428   1.954  15.125
   308G11  C0DN20664   2.550   1.891  15.113
   308G11  C0D820665   2.589   2.116  15.097
   308G11  C08W20666   1.980   2.787  15.241
   308G11  C0CQ20667   2.114   2.842  15.234
   308G11  C09320668   2.043   2.434  15.172
   308G11  C09220669   2.122   2.213  15.160
   308G11  C08520670   1.758   2.213  15.214
   308G11  C07S20671   1.528   2.264  15.254
   308G11  C06F20672   1.269   2.178  15.279
   308G11  C07O20673   1.575   1.904  15.194
   308G11  C07N20674   1.676   1.812  15.166
   308G11  C05D20675   1.223   1.900  15.241
   308G11  C05C20676   1.125   1.993  15.258
   308G11  C05N20677   1.009   1.934  15.209
   308G11  C05M20678   0.994   1.616  15.001
   308G11  C05I20679   1.082   1.404  14.953
   308G11  C06120680   1.049   1.132  14.875
   308G11  C02Q20681   0.909   0.996  14.727
   308G11  C02O20682   0.669   0.998  14.536
   308G11  C03Q20683   0.729   1.282  14.766
   308G11  C03O20684   0.647   1.503  14.714
   308G11  C03L20685   0.422   1.621  14.479
   308G11  C02S20686   0.528   1.258  14.463
   308G11  C02T20687   0.365   1.259  14.243
   308G11  C03K20688   0.342   1.624  14.357
   308G11  C03I20689   0.291   1.264  14.129
   308G11  C03G20690   0.132   1.277  13.900
   308G11  H00D20691   0.075   1.266  13.809
   308G11  C03J20692   0.221   1.627  14.100
   308G11  C03W20693   0.133   1.863  13.969
   308G11  C04I20694   0.200   1.989  14.154
   308G11  C04K20695   0.213   2.212  14.312
   308G11  C04N20696   0.236   2.323  14.395
   308G11  C04X20697   0.323   2.423  14.596
   308G11  C05020698   0.449   2.526  14.798
   308G11  C05W20699   0.518   2.260  14.880
   308G11  C05S20700   0.767   2.577  15.145
   308G11  C05R20701   0.708   2.224  15.116
   308G11  C05O20702   0.903   2.017  15.185
   308G11  C05B20703   1.148   2.134  15.280
   308G11  C05A20704   0.939   2.442  15.246
   308G11  C07R20705   1.296   2.316  15.278
   308G11  C08N20706   1.359   2.581  15.331
   308G11  C08M20707   1.398   2.708  15.381
   308G11  C08L20708   1.297   2.802  15.417
   308G11  C09120709   0.909   2.577  15.199
   308G11  C09K20710   0.939   2.924  15.209
   308G11  H00M20711   0.923   2.921  15.102
   308G11  C08K20712   1.167   2.771  15.377
   308G11  C09J20713   0.974   3.037  15.288
   308G11  C09I20714   1.025   3.161  15.253
   308G11  C09L20715   0.959   3.260  15.178
   308G11  H00N20716   0.868   3.240  15.123
   308G11  C09Q20717   1.016   3.384  15.190
   308G11  H00O20718   0.968   3.464  15.136
   308G11  O00B20719   1.125   3.419  15.264
   308G11  C09G20720   1.185   3.327  15.343
   308G11  C09F20721   1.304   3.368  15.409
   308G11  O00A20722   1.327   3.503  15.398
   308G11  C09P20723   1.443   3.550  15.457
   308G11  H00P20724   1.435   3.625  15.534
   308G11  C09O20725   1.564   3.470  15.447
   308G11  C09D20726   1.547   3.332  15.486
   308G11  C09C20727   1.654   3.234  15.507
   308G11  C09N20728   1.792   3.238  15.479
   308G11  C09T20729   1.850   3.322  15.382
   308G11  C09S20730   1.803   3.458  15.371
   308G11  C0CP20731   1.913   3.529  15.306
   308G11  C0CN20732   2.023   3.444  15.278
   308G11  C0CO20733   2.130   3.499  15.203
   308G11  H01420734   2.219   3.443  15.176
   308G11  C0CZ20735   2.129   3.642  15.193
   308G11  H01520736   2.222   3.692  15.167
   308G11  C0D020737   2.016   3.725  15.223
   308G11  C0G520738   2.011   3.870  15.222
   308G11  H01F20739   2.101   3.922  15.196
   308G11  C0G420740   1.904   3.940  15.258
   308G11  H01G20741   1.914   4.047  15.250
   308G11  O00H20742   1.790   3.882  15.309
   308G11  C0D220743   1.791   3.746  15.320
   308G11  C09V20744   1.681   3.673  15.377
   308G11  H00Q20745   1.596   3.737  15.395
   308G11  C0D120746   1.903   3.665  15.282
   308G11  C09R20747   1.684   3.534  15.402
   308G11  C09H20748   1.134   3.191  15.339
   308G11  C09E20749   1.409   3.282  15.471
   308G11  C09B20750   1.628   3.108  15.559
   308G11  C08Z20751   1.345   2.923  15.474
   308G11  C08O20752   1.535   2.746  15.390
   308G11  C09A20753   1.742   3.017  15.560
   308G11  C08S20754   1.848   2.827  15.279
   308G11  C09920755   1.842   3.100  15.500
   308G11  C09U20756   1.992   3.315  15.338
   308G11  C0BO20757   2.445   3.193  15.271
   308G11  C0CL20758   2.137   2.977  15.270
   308G11  C0D320759   2.220   2.751  15.199
   308G11  C0D520760   2.431   2.573  15.132
   308G11  C0BR20761   2.505   2.985  15.168
   308G11  C0BQ20762   2.537   3.112  15.202
   308G11  C0BL20763   2.614   3.367  15.286
   308G11  C0AF20764   2.848   3.471  15.201
   308G11  C0BH20765   2.872   3.134  15.054
   308G11  C0BG20766   2.975   3.049  14.999
   308G11  C0BD20767   3.113   3.239  14.966
   308G11  C0AG20768   2.960   3.522  15.136
   308G11  C0AI20769   3.128   3.697  15.154
   308G11  C0AV20770   3.395   3.764  15.159
   308G11  C0BB20771   3.376   3.487  14.913
   308G11  O00C20772   3.614   3.681  15.093
   308G11  C0BC20773   3.483   3.424  14.863
   308G11  C0B920774   3.234   3.294  14.921
   308G11  O00E20775   3.414   2.984  14.833
   308G11  C0CA20776   3.404   2.850  14.821
   308G11  O00F20777   3.499   2.783  14.784
   308G11  C0BF20778   3.094   3.102  14.960
   308G11  C0C520779   3.276   2.799  14.862
   308G11  C0C420780   3.254   2.658  14.858
   308G11  H01120781   3.324   2.586  14.818
   308G11  C0C820782   2.950   2.915  14.999
   308G11  C0C220783   3.130   2.609  14.913
   308G11  C0C320784   3.103   2.467  14.918
   308G11  C0DY20785   3.187   2.370  14.872
   308G11  H01620786   3.281   2.358  14.819
   308G11  C0DX20787   3.115   2.249  14.897
   308G11  C0DW20788   3.185   2.125  14.903
   308G11  C0BY20789   2.809   2.726  15.041
   308G11  C0DB20790   2.987   2.421  14.970
   308G11  C0CC20791   2.661   2.529  15.078
   308G11  C0D720792   2.622   2.257  15.074
   308G11  C0DZ20793   2.981   2.282  14.956
   308G11  C0DM20794   2.655   1.986  15.095
   308G11  C0DQ20795   2.990   1.970  14.960
   308G11  C0DV20796   3.122   2.002  14.922
   308G11  C0E020797   3.324   2.099  14.859
   308G11  C0FO20798   3.484   1.825  14.992
   308G11  C0E320799   3.448   2.145  14.922
   308G11  H01720800   3.465   2.232  14.984
   308G11  C0GV20801   3.600   1.866  15.056
   308G11  C0ES20802   3.407   1.718  15.043
   308G11  C0GQ20803   3.630   1.629  15.329
   308G11  C0FJ20804   3.365   1.367  15.387
   308G11  C0ED20805   3.262   1.497  15.163
   308G11  C0ER20806   3.130   1.184  15.085
   308G11  C0EP20807   2.910   1.246  15.037
   308G11  C0E620808   3.065   1.597  15.029
   308G11  C0DE20809   2.774   1.691  15.084
   308G11  C0EA20810   2.663   1.313  15.050
   308G11  C0DF20811   2.650   1.673  15.146
   308G11  C08020812   2.362   1.459  15.133
   308G11  C0DO20813   2.533   1.758  15.135
   308G11  C0DJ20814   2.299   1.900  15.153
   308G11  C07K20815   2.117   1.583  15.122
   308G11  C07W20816   2.071   1.945  15.166
   308G11  C08320817   1.808   1.857  15.171
   308G11  C07J20818   1.983   1.542  15.107
   308G11  C06O20819   1.713   1.465  15.061
   308G11  C06M20820   1.642   1.683  15.133
   318G11  C07120821  10.212   4.042  13.708
   318G11  C07L20822  10.225   3.901  13.700
   318G11  C07M20823  10.327   3.841  13.628
   318G11  C07Y20824  10.337   3.698  13.621
   318G11  C08120825  10.255   3.611  13.699
   318G11  C08220826  10.286   3.471  13.701
   318G11  C0DI20827  10.215   3.362  13.774
   318G11  C0DH20828  10.093   3.355  13.846
   318G11  C0DG20829  10.066   3.224  13.896
   318G11  C0E920830   9.936   3.153  13.896
   318G11  C0E820831   9.983   3.012  13.859
   318G11  C0E720832   9.922   2.885  13.906
   318G11  C0EB20833   9.801   2.887  13.986
   318G11  C0EF20834   9.741   2.777  14.057
   318G11  C0EE20835   9.807   2.684  14.142
   318G11  C0FD20836   9.765   2.663  14.275
   318G11  C0FE20837   9.667   2.741  14.341
   318G11  H01B20838   9.599   2.811  14.293
   318G11  C0FF20839   9.659   2.747  14.481
   318G11  H01A20840   9.587   2.810  14.530
   318G11  C0FG20841   9.747   2.666  14.554
   318G11  H01820842   9.731   2.672  14.660
   318G11  C0FH20843   9.837   2.576  14.493
   318G11  C0FI20844   9.923   2.486  14.568
   318G11  H01920845   9.910   2.494  14.675
   318G11  O00K20846  10.009   2.392  14.514
   318G11  C0FL20847  10.015   2.406  14.373
   318G11  C0FK20848   9.939   2.497  14.290
   318G11  C0FM20849   9.964   2.500  14.153
   318G11  C0FN20850  10.037   2.399  14.088
   318G11  C0FP20851  10.095   2.304  14.171
   318G11  C0GO20852  10.181   2.205  14.118
   318G11  C0GN20853  10.274   2.139  14.190
   318G11  C0GR20854  10.269   2.146  14.330
   318G11  C0GS20855  10.361   2.073  14.409
   318G11  H01Q20856  10.349   2.071  14.516
   318G11  C0GT20857  10.450   1.987  14.348
   318G11  H01O20858  10.518   1.923  14.402
   318G11  C0GU20859  10.465   1.994  14.211
   318G11  H01P20860  10.530   1.920  14.167
   318G11  O00L20861  10.170   2.220  14.386
   318G11  C0GM20862  10.376   2.068  14.129
   318G11  C0GL20863  10.377   2.066  13.987
   318G11  H01R20864  10.455   2.017  13.931
   318G11  C0GK20865  10.293   2.141  13.909
   318G11  C0GP20866  10.281   2.178  13.771
   318G11  C0E220867  10.160   2.256  13.757
   318G11  C0E120868  10.187   2.361  13.660
   318G11  C0DU20869  10.170   2.502  13.686
   318G11  C0DT20870  10.083   2.565  13.772
   318G11  C0E420871  10.035   2.520  13.894
   318G11  C0E520872   9.970   2.629  13.960
   318G11  C0DS20873  10.083   2.708  13.787
   318G11  C0DR20874  10.175   2.776  13.709
   318G11  C0DD20875  10.200   2.915  13.715
   318G11  C0DC20876  10.323   2.931  13.629
   318G11  C0DP20877  10.365   2.807  13.577
   318G11  C0DA20878  10.472   2.788  13.474
   318G11  C0D920879  10.554   2.882  13.392
   318G11  C0CR20880  10.639   2.830  13.283
   318G11  C0C020881  10.660   2.701  13.258
   318G11  C0BZ20882  10.726   2.645  13.151
   318G11  C0C120883  10.726   2.509  13.130
   318G11  C0C720884  10.784   2.460  13.014
   318G11  C0C620885  10.779   2.321  12.980
   318G11  C0C920886  10.830   2.274  12.862
   318G11  C0B820887  10.833   2.138  12.833
   318G11  C0B720888  10.879   2.088  12.712
   318G11  C0B620889  10.895   1.951  12.667
   318G11  C0B520890  10.943   1.852  12.758
   318G11  H00Z20891  10.955   1.848  12.865
   318G11  C0B420892  11.020   1.752  12.674
   318G11  H01020893  11.095   1.678  12.695
   318G11  C0B320894  11.010   1.801  12.537
   318G11  C0AP20895  11.099   1.827  12.427
   318G11  C0AQ20896  11.068   1.952  12.379
   318G11  C0AR20897  11.177   2.030  12.331
   318G11  C0AS20898  11.157   2.167  12.336
   318G11  C0AT20899  11.070   2.221  12.427
   318G11  C0BA20900  10.990   2.145  12.503
   318G11  C0AU20901  11.082   2.355  12.463
   318G11  C0BE20902  11.014   2.402  12.578
   318G11  C0BI20903  11.033   2.531  12.611
   318G11  C0BJ20904  11.125   2.612  12.545
   318G11  C0BK20905  11.146   2.744  12.578
   318G11  C0BW20906  11.062   2.796  12.670
   318G11  C0BV20907  10.979   2.721  12.752
   318G11  C0BU20908  10.917   2.773  12.867
   318G11  C0BX20909  10.851   2.682  12.950
   318G11  C0BT20910  10.927   2.908  12.895
   318G11  C0CD20911  10.856   2.958  13.007
   318G11  C0CB20912  10.789   2.872  13.094
   318G11  C0CE20913  10.852   3.093  13.017
   318G11  C0CK20914  10.925   3.178  12.926
   318G11  C0BS20915  11.003   3.128  12.825
   318G11  C0CJ20916  11.077   3.214  12.745
   318G11  C0BP20917  11.162   3.155  12.649
   318G11  C0CI20918  11.256   3.226  12.573
   318G11  C0CH20919  11.373   3.152  12.539
   318G11  H01220920  11.452   3.220  12.509
   318G11  C0BN20921  11.366   3.016  12.503
   318G11  C0CG20922  11.455   2.959  12.415
   318G11  C0CF20923  11.550   3.040  12.342
   318G11  H01320924  11.558   3.148  12.340
   318G11  O00G20925  11.640   2.987  12.249
   318G11  C0AA20926  11.628   2.851  12.227
   318G11  C0A920927  11.714   2.799  12.132
   318G11  H00U20928  11.783   2.866  12.084
   318G11  C0A820929  11.721   2.658  12.111
   318G11  H00V20930  11.801   2.626  12.046
   318G11  C0A720931  11.634   2.567  12.177
   318G11  C0A620932  11.526   2.633  12.255
   318G11  C0A520933  11.410   2.563  12.303
   318G11  C0A420934  11.394   2.427  12.279
   318G11  C0A320935  11.462   2.312  12.225
   318G11  C0A220936  11.593   2.309  12.189
   318G11  C0A120937  11.668   2.193  12.159
   318G11  C0A020938  11.652   2.045  12.171
   318G11  C09Z20939  11.764   1.969  12.129
   318G11  C09Y20940  11.762   1.829  12.135
   318G11  H00Y20941  11.848   1.772  12.104
   318G11  C09X20942  11.649   1.762  12.187
   318G11  C09W20943  11.657   1.627  12.216
   318G11  H00R20944  11.748   1.572  12.198
   318G11  C0AX20945  11.557   1.554  12.285
   318G11  H00S20946  11.583   1.452  12.308
   318G11  C0AW20947  11.444   1.628  12.316
   318G11  H00T20948  11.361   1.573  12.359
   318G11  C0AN20949  11.431   1.764  12.295
   318G11  C0AO20950  11.313   1.833  12.322
   318G11  C0AM20951  11.537   1.836  12.238
   318G11  C0B220952  11.883   2.021  12.083
   318G11  O00D20953  11.984   1.957  12.057
   318G11  C0B120954  11.908   2.164  12.077
   318G11  H00W20955  11.999   2.210  12.042
   318G11  C0AL20956  11.535   1.978  12.221
   318G11  C0AK20957  11.413   2.042  12.253
   318G11  C0B020958  11.797   2.244  12.116
   318G11  C0AZ20959  11.793   2.386  12.110
   318G11  H00X20960  11.876   2.444  12.072
   318G11  C0AJ20961  11.387   2.186  12.249
   318G11  C0AH20962  11.271   2.374  12.313
   318G11  C0AE20963  11.318   2.624  12.389
   318G11  C0AD20964  11.335   2.757  12.430
   318G11  C0AY20965  11.664   2.427  12.154
   318G11  C0AB20966  11.531   2.769  12.288
   318G11  C0AC20967  11.442   2.826  12.379
   318G11  C0BM20968  11.253   2.952  12.542
   318G11  C0CM20969  11.232   3.363  12.560
   318G11  C09M20970  11.170   3.432  12.669
   318G11  C09820971  11.207   3.568  12.698
   318G11  C08R20972  11.155   3.674  12.778
   318G11  C08Q20973  11.225   3.796  12.780
   318G11  C08P20974  11.188   3.934  12.785
   318G11  C08Y20975  11.262   4.020  12.701
   318G11  C09720976  11.352   3.971  12.610
   318G11  C09620977  11.350   4.055  12.503
   318G11  C09020978  11.299   4.181  12.548
   318G11  C09520979  11.270   4.292  12.472
   318G11  C09420980  11.221   4.418  12.518
   318G11  C08J20981  11.155   4.445  12.645
   318G11  C08I20982  11.052   4.543  12.615
   318G11  C08H20983  10.942   4.533  12.714
   318G11  C08G20984  10.967   4.410  12.788
   318G11  C08F20985  10.908   4.333  12.896
   318G11  C08E20986  10.831   4.397  12.998
   318G11  C05920987  10.808   4.537  13.010
   318G11  C05820988  10.741   4.588  13.121
   318G11  C05720989  10.710   4.721  13.147
   318G11  C05620990  10.754   4.812  13.052
   318G11  C05520991  10.833   4.773  12.947
   318G11  C05420992  10.834   4.868  12.849
   318G11  C05320993  10.760   4.983  12.899
   318G11  C05220994  10.708   5.094  12.832
   318G11  C05120995  10.734   5.114  12.690
   318G11  C05U20996  10.797   5.023  12.595
   318G11  C05T20997  10.841   4.884  12.602
   318G11  C06K20998  10.926   4.871  12.490
   318G11  H00J20999  10.989   4.783  12.488
   318G11  C06L21000  10.919   4.977  12.396
   318G11  H00I21001  10.964   4.991  12.299
   318G11  C05V21002  10.847   5.078  12.471
   318G11  C06J21003  10.818   5.199  12.423
   318G11  H00K21004  10.861   5.221  12.326
   318G11  C05X21005  10.734   5.283  12.498
   318G11  C06I21006  10.687   5.410  12.453
   318G11  H00L21007  10.720   5.434  12.353
   318G11  C04Z21008  10.611   5.496  12.520
   318G11  C06H21009  10.568   5.618  12.465
   318G11  H00H21010  10.603   5.641  12.365
   318G11  C04Y21011  10.482   5.704  12.540
   318G11  C06G21012  10.441   5.831  12.488
   318G11  O00921013  10.486   5.875  12.377
   318G11  O00821014  10.350   5.909  12.569
   318G11  C04P21015  10.307   5.864  12.688
   318G11  C04J21016  10.214   5.938  12.767
   318G11  C04Q21017  10.162   6.063  12.746
   318G11  H00E21018  10.203   6.128  12.671
   318G11  C04M21019  10.043   6.109  12.807
   318G11  C04R21020   9.981   6.232  12.784
   318G11  H00F21021  10.024   6.307  12.718
   318G11  C04S21022   9.863   6.263  12.845
   318G11  H00G21023   9.821   6.358  12.817
   318G11  O00721024   9.793   6.185  12.936
   318G11  C03V21025   9.863   6.070  12.967
   318G11  C03U21026   9.814   5.993  13.067
   318G11  O00621027   9.690   6.016  13.109
   318G11  C03F21028   9.625   5.940  13.199
   318G11  C03E21029   9.693   5.836  13.262
   318G11  C03D21030   9.823   5.803  13.220
   318G11  C03C21031   9.887   5.692  13.270
   318G11  C03B21032   9.820   5.632  13.385
   318G11  C03A21033   9.885   5.526  13.446
   318G11  C03921034  10.010   5.475  13.405
   318G11  C03821035  10.028   5.357  13.489
   318G11  C03721036   9.915   5.357  13.572
   318G11  C03621037   9.890   5.255  13.661
   318G11  C02R21038   9.783   5.225  13.737
   318G11  C03521039   9.813   5.109  13.803
   318G11  C03R21040   9.927   5.054  13.750
   318G11  C03S21041   9.958   4.919  13.745
   318G11  C04921042  10.067   4.882  13.673
   318G11  C04821043  10.122   4.988  13.590
   318G11  C03P21044  10.081   5.125  13.576
   318G11  C04721045  10.241   4.941  13.529
   318G11  C04621046  10.327   5.018  13.449
   318G11  C04521047  10.329   5.153  13.400
   318G11  C03T21048  10.234   5.254  13.413
   318G11  C04421049  10.273   5.364  13.336
   318G11  C04321050  10.403   5.337  13.290
   318G11  C04221051  10.410   5.395  13.159
   318G11  C04121052  10.296   5.493  13.157
   318G11  C04021053  10.271   5.582  13.048
   318G11  C03Z21054  10.173   5.688  13.044
   318G11  C04H21055  10.208   5.758  12.930
   318G11  C04G21056  10.302   5.690  12.861
   318G11  C03N21057  10.064   5.734  13.121
   318G11  C03Y21058  10.002   5.845  13.065
   318G11  C03X21059  10.046   5.919  12.952
   318G11  C04F21060  10.348   5.582  12.924
   318G11  C04E21061  10.450   5.506  12.861
   318G11  C04O21062  10.490   5.545  12.729
   318G11  C04D21063  10.518   5.389  12.920
   318G11  C04V21064  10.593   5.309  12.834
   318G11  C04W21065  10.627   5.341  12.699
   318G11  C04C21066  10.492   5.329  13.048
   318G11  C04L21067  10.561   5.196  13.035
   318G11  C04U21068  10.601   5.123  13.152
   318G11  C05Q21069  10.652   4.998  13.141
   318G11  C05P21070  10.612   4.916  13.242
   318G11  C04T21071  10.516   4.981  13.314
   318G11  C04B21072  10.517   5.108  13.264
   318G11  C03M21073  10.208   5.475  13.267
   318G11  C04A21074  10.428   5.204  13.321
   318G11  C05H21075  10.427   4.929  13.407
   318G11  C05G21076  10.395   4.800  13.462
   318G11  C05F21077  10.468   4.679  13.431
   318G11  C05E21078  10.426   4.548  13.461
   318G11  C05L21079  10.338   4.480  13.547
   318G11  C05K21080  10.230   4.552  13.604
   318G11  C05J21081  10.200   4.697  13.607
   318G11  C06621082  10.150   4.465  13.687
   318G11  C06521083  10.174   4.322  13.696
   318G11  C06421084  10.280   4.263  13.632
   318G11  C06N21085  10.085   4.240  13.767
   318G11  C06921086   9.976   4.295  13.835
   318G11  C06P21087   9.879   4.213  13.903
   318G11  C06R21088   9.757   4.266  13.954
   318G11  C06B21089   9.735   4.402  13.944
   318G11  C06S21090   9.612   4.452  13.992
   318G11  C02G21091   9.594   4.590  13.994
   318G11  C02F21092   9.468   4.642  14.040
   318G11  C02721093   9.365   4.555  14.075
   318G11  C02621094   9.236   4.606  14.097
   318G11  C00E21095   9.130   4.520  14.116
   318G11  C00D21096   9.002   4.570  14.121
   318G11  C00C21097   8.900   4.483  14.130
   318G11  C00B21098   8.913   4.345  14.118
   318G11  C01521099   9.038   4.296  14.111
   318G11  C07F21100   9.059   4.156  14.109
   318G11  C07E21101   9.186   4.102  14.098
   318G11  C06W21102   9.293   4.192  14.091
   318G11  C06V21103   9.277   4.331  14.094
   318G11  C06X21104   9.425   4.144  14.069
   318G11  C07B21105   9.443   4.005  14.058
   318G11  C07C21106   9.338   3.917  14.070
   318G11  C0FU21107   9.355   3.779  14.039
   318G11  C0F721108   9.245   3.693  14.039
   318G11  C0F621109   9.264   3.555  14.026
   318G11  C0F821110   9.155   3.472  14.038
   318G11  C0F921111   9.171   3.335  14.031
   318G11  C0FA21112   9.056   3.251  14.037
   318G11  C0FZ21113   8.934   3.311  14.055
   318G11  C0G021114   8.830   3.224  14.063
   318G11  C0GD21115   8.833   3.081  14.058
   318G11  C0FC21116   8.960   3.024  14.038
   318G11  C0GH21117   8.981   2.884  14.030
   318G11  C0EY21118   9.109   2.837  14.020
   318G11  C0EX21119   9.131   2.698  14.031
   318G11  C0EW21120   9.262   2.648  14.046
   318G11  C0FR21121   9.288   2.506  14.065
   318G11  H01D21122   9.386   2.463  14.082
   318G11  C0FS21123   9.185   2.415  14.044
   318G11  H01C21124   9.194   2.308  14.040
   318G11  C0GJ21125   9.060   2.467  14.009
   318G11  H01N21126   8.982   2.396  13.986
   318G11  C0EV21127   9.373   2.737  14.035
   318G11  C0FT21128   9.505   2.691  14.056
   318G11  H01E21129   9.536   2.593  14.087
   318G11  C0EU21130   9.350   2.874  14.009
   318G11  C0ET21131   9.453   2.964  13.991
   318G11  C0EI21132   9.443   3.100  13.987
   318G11  C0F121133   9.313   3.147  14.002
   318G11  C0F021134   9.201   3.060  14.007
   318G11  C0EH21135   9.553   3.177  13.968
   318G11  C0EG21136   9.691   3.124  13.951
   318G11  C0EJ21137   9.541   3.315  13.983
   318G11  C0F321138   9.411   3.367  14.002
   318G11  C0EK21139   9.651   3.398  13.968
   318G11  C0EL21140   9.784   3.351  13.934
   318G11  C0EM21141   9.879   3.454  13.908
   318G11  C0EN21142   9.845   3.586  13.937
   318G11  C07I21143   9.942   3.667  13.888
   318G11  C07421144   9.930   3.807  13.900
   318G11  C07321145  10.031   3.879  13.842
   318G11  C07221146  10.015   4.023  13.845
   318G11  C07521147   9.814   3.856  13.956
   318G11  C07621148   9.707   3.768  13.985
   318G11  C07821149   9.586   3.821  14.011
   318G11  C07G21150   9.799   3.990  13.958
   318G11  C07021151   9.673   4.041  13.997
   318G11  C07Z21152  10.050   3.599  13.832
   318G11  C07721153   9.722   3.629  13.974
   318G11  C0EO21154   9.624   3.536  13.991
   318G11  C0F421155   9.495   3.592  13.999
   318G11  C0EQ21156   9.579   2.912  13.996
   318G11  C0FQ21157   9.027   2.607  14.013
   318G11  C0GI21158   8.901   2.663  14.011
   318G11  H01L21159   8.816   2.597  14.014
   318G11  C0EZ21160   9.219   2.922  14.006
   318G11  C0GG21161   8.871   2.797  14.029
   318G11  C0GF21162   8.742   2.855  14.044
   318G11  H01M21163   8.657   2.789  14.050
   318G11  C0GE21164   8.724   2.993  14.054
   318G11  H01K21165   8.621   3.024  14.062
   318G11  O00J21166   8.704   3.276  14.080
   318G11  C0GA21167   8.685   3.409  14.080
   318G11  C0G921168   8.556   3.455  14.084
   318G11  H01H21169   8.476   3.383  14.090
   318G11  C0G821170   8.533   3.593  14.087
   318G11  C0G721171   8.405   3.652  14.097
   318G11  H01I21172   8.322   3.586  14.116
   318G11  O00I21173   8.381   3.779  14.067
   318G11  C0G621174   8.487   3.860  14.100
   318G11  H01J21175   8.462   3.952  14.151
   318G11  C02D21176   8.619   3.817  14.081
   318G11  C02C21177   8.726   3.904  14.090
   318G11  C01721178   8.710   4.045  14.082
   318G11  C01621179   8.822   4.127  14.097
   318G11  O00121180   8.586   4.095  14.057
   318G11  C01821181   8.554   4.230  14.081
   318G11  C00921182   8.665   4.317  14.099
   318G11  C00821183   8.658   4.463  14.109
   318G11  C00721184   8.551   4.557  14.089
   318G11  C00621185   8.417   4.527  14.056
   318G11  C00521186   8.315   4.625  14.027
   318G11  C00421187   8.327   4.771  14.007
   318G11  C00321188   8.447   4.867  14.012
   318G11  C00221189   8.428   5.000  13.968
   318G11  C00P21190   8.538   5.096  13.972
   318G11  C00O21191   8.517   5.233  13.940
   318G11  C00N21192   8.622   5.321  13.935
   318G11  C01021193   8.597   5.450  13.881
   318G11  C01121194   8.703   5.531  13.850
   318G11  C01Q21195   8.675   5.656  13.792
   318G11  C01U21196   8.543   5.701  13.762
   318G11  C01221197   8.443   5.611  13.791
   318G11  H00021198   8.338   5.625  13.769
   318G11  C01V21199   8.525   5.826  13.707
   318G11  H00721200   8.426   5.858  13.680
   318G11  O00521201   8.631   5.901  13.671
   318G11  C01W21202   8.758   5.861  13.693
   318G11  C03121203   8.861   5.943  13.651
   318G11  C03221204   8.996   5.913  13.679
   318G11  H00A21205   9.074   5.985  13.655
   318G11  C03321206   9.025   5.793  13.746
   318G11  H00B21207   9.128   5.775  13.773
   318G11  C01O21208   8.919   5.701  13.776
   318G11  C01N21209   8.943   5.576  13.832
   318G11  C01M21210   9.080   5.518  13.854
   318G11  C01L21211   9.218   5.530  13.802
   318G11  C01K21212   9.294   5.437  13.879
   318G11  C01Y21213   9.417   5.378  13.825
   318G11  C02I21214   9.479   5.443  13.721
   318G11  C02N21215   9.614   5.406  13.695
   318G11  C02M21216   9.681   5.478  13.591
   318G11  C02L21217   9.617   5.583  13.523
   318G11  C02K21218   9.484   5.608  13.546
   318G11  C02U21219   9.420   5.692  13.457
   318G11  C02V21220   9.490   5.777  13.373
   318G11  C03H21221   9.425   5.888  13.309
   318G11  H00C21222   9.321   5.910  13.328
   318G11  C02W21223   9.282   5.681  13.446
   318G11  C02X21224   9.218   5.629  13.563
   318G11  C02Y21225   9.087   5.623  13.516
   318G11  H00821226   8.995   5.594  13.564
   318G11  C02Z21227   9.073   5.688  13.385
   318G11  O00421228   8.973   5.707  13.313
   318G11  O00321229   9.200   5.721  13.347
   318G11  C02J21230   9.412   5.538  13.645
   318G11  C01Z21231   9.453   5.260  13.891
   318G11  C02021232   9.363   5.180  13.963
   318G11  C01I21233   9.237   5.226  13.990
   318G11  C01H21234   9.132   5.145  14.031
   318G11  C00K21235   9.008   5.194  14.026
   318G11  C01S21236   8.977   5.324  13.978
   318G11  C01421237   8.853   5.371  13.942
   318G11  C00J21238   8.895   5.114  14.051
   318G11  C00I21239   8.922   4.982  14.082
   318G11  C00H21240   9.058   4.931  14.089
   318G11  C00G21241   9.084   4.795  14.102
   318G11  C00S21242   8.820   4.890  14.088
   318G11  C00T21243   8.856   4.760  14.105
   318G11  C00U21244   8.749   4.668  14.123
   318G11  C00R21245   8.690   4.922  14.055
   318G11  C00L21246   8.765   5.155  14.021
   318G11  C02821247   9.161   5.014  14.059
   318G11  C02321248   9.289   4.962  14.041
   318G11  C02421249   9.314   4.826  14.054
   318G11  C02121250   9.386   5.045  13.989
   318G11  C02221251   9.507   4.996  13.947
   318G11  C02H21252   9.536   4.858  13.967
   318G11  C03021253   9.658   4.811  13.926
   318G11  C03421254   9.754   4.890  13.869
   318G11  C02P21255   9.599   5.077  13.885
   318G11  C02B21256   9.569   5.210  13.848
   318G11  C01J21257   9.213   5.362  13.961
   318G11  C01X21258   9.273   5.566  13.676
   318G11  C01T21259   9.084   5.407  13.940
   318G11  H00921260   8.835   6.035  13.600
   318G11  C01P21261   8.785   5.736  13.754
   318G11  C01R21262   8.836   5.496  13.879
   318G11  C00Z21263   8.468   5.486  13.844
   318G11  O00021264   8.360   5.398  13.858
   318G11  C00M21265   8.747   5.284  13.966
   318G11  C00Y21266   8.392   5.270  13.887
   318G11  C01321267   8.286   5.178  13.889
   318G11  H00121268   8.194   5.229  13.862
   318G11  C00Q21269   8.663   5.058  14.019
   318G11  C00121270   8.303   5.043  13.922
   318G11  C00021271   8.201   4.955  13.918
   318G11  H00621272   8.102   4.988  13.890
   318G11  C00W21273   8.579   4.829  14.049
   318G11  C01G21274   8.207   4.821  13.956
   318G11  H00521275   8.114   4.769  13.941
   318G11  C01C21276   8.192   4.547  14.034
   318G11  H00221277   8.092   4.585  14.017
   318G11  C01B21278   8.225   4.410  14.045
   318G11  C01D21279   8.133   4.299  14.046
   318G11  H00321280   8.026   4.309  14.048
   318G11  C01E21281   8.196   4.181  14.060
   318G11  H00421282   8.131   4.097  14.085
   318G11  O00221283   8.335   4.159  14.050
   318G11  C01A21284   8.366   4.394  14.059
   318G11  C00V21285   8.613   4.689  14.082
   318G11  C01921286   8.418   4.265  14.067
   318G11  C02E21287   8.859   3.850  14.088
   318G11  C0FX21288   8.880   3.712  14.079
   318G11  C0FW21289   9.009   3.662  14.066
   318G11  C0GB21290   8.772   3.631  14.077
   318G11  C0G321291   8.970   3.938  14.088
   318G11  C07H21292   9.095   3.883  14.079
   318G11  C0GC21293   8.640   3.679  14.079
   318G11  C0G221294   8.791   3.499  14.078
   318G11  C0G121295   8.916   3.446  14.061
   318G11  C0FB21296   9.069   3.110  14.024
   318G11  C0F221297   9.302   3.284  14.008
   318G11  C0FY21298   9.027   3.526  14.050
   318G11  C0F521299   9.391   3.504  14.006
   318G11  C0FV21300   9.116   3.746  14.059
   318G11  C07921301   9.477   3.731  14.018
   318G11  C07A21302   9.568   3.958  14.026
   318G11  C06Y21303   9.530   4.231  14.029
   318G11  C07D21304   9.209   3.965  14.093
   318G11  C01F21305   8.951   4.076  14.103
   318G11  C00A21306   8.799   4.262  14.106
   318G11  C00X21307   8.775   4.535  14.138
   318G11  C00F21308   8.984   4.709  14.118
   318G11  C02921309   9.148   4.383  14.110
   318G11  C02521310   9.210   4.744  14.083
   318G11  C06U21311   9.387   4.415  14.070
   318G11  C02A21312   9.439   4.776  14.023
   318G11  C05Y21313   9.691   4.674  13.932
   318G11  C05Z21314   9.811   4.625  13.888
   318G11  C06021315   9.900   4.708  13.824
   318G11  C06221316  10.017   4.655  13.754
   318G11  C06T21317   9.509   4.368  14.030
   318G11  C06A21318   9.835   4.485  13.889
   318G11  C06Z21319   9.652   4.178  13.991
   318G11  C06Q21320   9.898   4.077  13.904
   318G11  C06821321   9.955   4.433  13.828
   318G11  C06721322  10.043   4.518  13.756
   318G11  C06321323  10.356   4.342  13.545
   318G11  C06C21324  10.448   4.273  13.465
   318G11  C06D21325  10.532   4.343  13.380
   318G11  C06E21326  10.624   4.291  13.293
   318G11  C07Q21327  10.635   4.153  13.289
   318G11  C07P21328  10.554   4.076  13.372
   318G11  C07T21329  10.567   3.940  13.367
   318G11  C07U21330  10.495   3.863  13.456
   318G11  C07V21331  10.503   3.724  13.449
   318G11  C08421332  10.588   3.669  13.356
   318G11  C08C21333  10.660   3.745  13.272
   318G11  C08B21334  10.735   3.689  13.176
   318G11  C08A21335  10.813   3.771  13.097
   318G11  C08921336  10.816   3.909  13.100
   318G11  C08821337  10.892   3.982  13.008
   318G11  C08721338  10.874   4.118  13.004
   318G11  C08621339  10.796   4.179  13.102
   318G11  C08X21340  10.982   3.924  12.923
   318G11  C08T21341  10.970   3.778  12.907
   318G11  C08D21342  10.737   3.965  13.197
   318G11  C08U21343  10.881   3.715  12.991
   318G11  C08V21344  10.881   3.579  12.969
   318G11  C0CY21345  10.815   3.496  13.061
   318G11  C0CX21346  10.831   3.364  13.041
   318G11  C0CW21347  10.765   3.279  13.129
   318G11  C0CV21348  10.684   3.329  13.229
   318G11  C0D421349  10.678   3.471  13.249
   318G11  C0CU21350  10.620   3.247  13.320
   318G11  C0CT21351  10.624   3.108  13.307
   318G11  C0CS21352  10.706   3.060  13.209
   318G11  C0D621353  10.547   3.311  13.418
   318G11  C0EC21354  10.541   3.450  13.437
   318G11  C07X21355  10.460   3.506  13.531
   318G11  C0DL21356  10.499   3.223  13.518
   318G11  C0DK21357  10.415   3.283  13.610
   318G11  C0DN21358  10.348   3.180  13.671
   318G11  C0D821359  10.488   3.086  13.507
   318G11  C08W21360  10.975   3.542  12.876
   318G11  C0CQ21361  10.993   3.402  12.859
   318G11  C09321362  10.739   3.552  13.162
   318G11  C09221363  10.609   3.527  13.347
   318G11  C08521364  10.656   3.882  13.280
   318G11  C07S21365  10.726   4.103  13.201
   318G11  C06F21366  10.691   4.364  13.197
   318G11  C07O21367  10.462   4.138  13.465
   318G11  C07N21368  10.389   4.059  13.553
   318G11  C05D21369  10.509   4.476  13.373
   318G11  C05C21370  10.590   4.547  13.293
   318G11  C05N21371  10.566   4.680  13.327
   318G11  C05M21372  10.278   4.804  13.538
   318G11  C05I21373  10.096   4.746  13.675
   318G11  C06121374   9.874   4.839  13.821
   318G11  C02Q21375   9.720   5.019  13.856
   318G11  C02O21376   9.656   5.283  13.760
   318G11  C03Q21377   9.973   5.145  13.660
   318G11  C03O21378  10.118   5.243  13.490
   318G11  C03L21379  10.079   5.535  13.294
   318G11  C02S21380   9.819   5.450  13.546
   318G11  C02T21381   9.689   5.656  13.426
   318G11  C03K21382  10.014   5.649  13.228
   318G11  C03I21383   9.624   5.757  13.356
   318G11  C03G21384   9.492   5.974  13.227
   318G11  H00D21385   9.445   6.055  13.174
   318G11  C03J21386   9.882   5.880  13.122
   318G11  C03W21387   9.987   6.034  12.906
   318G11  C04I21388  10.155   5.877  12.881
   318G11  C04K21389  10.348   5.746  12.740
   318G11  C04N21390  10.440   5.665  12.668
   318G11  C04X21391  10.575   5.462  12.647
   318G11  C05021392  10.697   5.243  12.625
   318G11  C05W21393  10.628   5.187  12.904
   318G11  C05S21394  10.852   4.798  12.724
   318G11  C05R21395  10.721   4.945  13.035
   318G11  C05O21396  10.629   4.777  13.245
   318G11  C05B21397  10.687   4.498  13.204
   318G11  C05A21398  10.837   4.641  12.907
   318G11  C07R21399  10.773   4.314  13.098
   318G11  C08N21400  10.936   4.194  12.906
   318G11  C08M21401  11.045   4.133  12.833
   318G11  C08L21402  11.120   4.212  12.740
   318G11  C09121403  10.866   4.648  12.771
   318G11  C09K21404  11.040   4.544  12.470
   318G11  H00M21405  10.949   4.560  12.414
   318G11  C08K21406  11.084   4.349  12.729
   318G11  C09J21407  11.160   4.484  12.411
   318G11  C09I21408  11.204   4.414  12.293
   318G11  C09L21409  11.202   4.463  12.159
   318G11  H00N21410  11.151   4.554  12.130
   318G11  C09Q21411  11.265   4.381  12.075
   318G11  H00O21412  11.252   4.405  11.971
   318G11  O00B21413  11.332   4.262  12.102
   318G11  C09G21414  11.322   4.213  12.232
   318G11  C09F21415  11.377   4.083  12.249
   318G11  O00A21416  11.428   4.032  12.128
   318G11  C09P21417  11.503   3.914  12.149
   318G11  H00P21418  11.608   3.910  12.127
   318G11  C09O21419  11.440   3.816  12.233
   318G11  C09D21420  11.396   3.869  12.355
   318G11  C09C21421  11.373   3.786  12.478
   318G11  C09N21422  11.346   3.651  12.506
   318G11  C09T21423  11.320   3.557  12.408
   318G11  C09S21424  11.390   3.573  12.283
   318G11  C0CP21425  11.393   3.445  12.235
   318G11  C0CN21426  11.328   3.350  12.315
   318G11  C0CO21427  11.306   3.219  12.268
   318G11  H01421428  11.241   3.149  12.318
   318G11  C0CZ21429  11.374   3.188  12.149
   318G11  H01521430  11.362   3.095  12.097
   318G11  C0D021431  11.452   3.279  12.073
   318G11  C0G521432  11.521   3.246  11.954
   318G11  H01F21433  11.521   3.142  11.927
   318G11  C0G421434  11.593   3.342  11.888
   318G11  H01G21435  11.652   3.315  11.802
   318G11  O00H21436  11.603   3.473  11.930
   318G11  C0D221437  11.531   3.502  12.044
   318G11  C09V21438  11.526   3.635  12.089
   318G11  H00Q21439  11.580   3.708  12.030
   318G11  C0D121440  11.454   3.414  12.113
   318G11  C09R21441  11.452   3.679  12.207
   318G11  C09H21442  11.271   4.296  12.331
   318G11  C09E21443  11.377   4.009  12.373
   318G11  C09B21444  11.371   3.842  12.604
   318G11  C08Z21445  11.226   4.149  12.671
   318G11  C08O21446  11.074   3.995  12.842
   318G11  C09A21447  11.340   3.756  12.705
   318G11  C08S21448  11.029   3.666  12.830
   318G11  C09921449  11.323   3.630  12.648
   318G11  C09U21450  11.289   3.420  12.438
   318G11  C0BO21451  11.165   3.014  12.635
   318G11  C0CL21452  11.080   3.352  12.759
   318G11  C0D321453  10.915   3.315  12.942
   318G11  C0D521454  10.774   3.144  13.115
   318G11  C0BR21455  11.003   2.988  12.810
   318G11  C0BQ21456  11.070   2.933  12.699
   318G11  C0BL21457  11.244   2.820  12.516
   318G11  C0AF21458  11.207   2.558  12.445
   318G11  C0BH21459  10.975   2.587  12.727
   318G11  C0BG21460  10.898   2.501  12.808
   318G11  C0BD21461  10.944   2.318  12.655
   318G11  C0AG21462  11.179   2.434  12.403
   318G11  C0AI21463  11.265   2.239  12.289
   318G11  C0AV21464  11.299   1.973  12.300
   318G11  C0BB21465  10.970   2.009  12.460
   318G11  O00C21466  11.211   1.765  12.388
   318G11  C0BC21467  10.914   1.911  12.536
   318G11  C0B921468  10.930   2.185  12.622
   318G11  O00E21469  10.769   2.047  12.914
   318G11  C0CA21470  10.714   2.084  13.037
   318G11  O00F21471  10.673   1.997  13.116
   318G11  C0BF21472  10.892   2.363  12.777
   318G11  C0C521473  10.719   2.230  13.064
   318G11  C0C421474  10.660   2.275  13.186
   318G11  H01121475  10.600   2.209  13.247
   318G11  C0C821476  10.843   2.548  12.928
   318G11  C0C221477  10.662   2.418  13.212
   318G11  C0C321478  10.603   2.480  13.326
   318G11  C0DY21479  10.530   2.409  13.422
   318G11  H01621480  10.512   2.303  13.437
   318G11  C0DX21481  10.484   2.517  13.508
   318G11  C0DW21482  10.373   2.480  13.589
   318G11  C0BY21483  10.788   2.733  13.064
   318G11  C0DB21484  10.597   2.615  13.344
   318G11  C0CC21485  10.717   2.920  13.203
   318G11  C0D721486  10.558   3.022  13.398
   318G11  C0DZ21487  10.510   2.650  13.449
   318G11  C0DM21488  10.397   3.054  13.617
   318G11  C0DQ21489  10.280   2.709  13.633
   318G11  C0DV21490  10.277   2.572  13.636
   318G11  C0E021491  10.325   2.345  13.615
   318G11  C0FO21492  10.108   2.283  13.891
   318G11  C0E321493  10.385   2.245  13.697
   318G11  H01721494  10.491   2.230  13.704
   318G11  C0GV21495  10.181   2.198  13.975
   318G11  C0ES21496  10.054   2.397  13.953
   318G11  C0GQ21497  10.100   2.316  14.311
   318G11  C0FJ21498   9.845   2.579  14.351
   318G11  C0ED21499   9.909   2.612  14.085
   318G11  C0ER21500   9.604   2.782  14.040
   318G11  C0EP21501   9.693   2.981  13.975
   318G11  C0E621502   9.984   2.751  13.882
   318G11  C0DE21503  10.117   3.012  13.799
   318G11  C0EA21504   9.800   3.208  13.923
   318G11  C0DF21505  10.171   3.141  13.837
   318G11  C08021506  10.008   3.461  13.849
   318G11  C0DO21507  10.251   3.223  13.760
   318G11  C0DJ21508  10.391   3.423  13.618
   318G11  C07K21509  10.156   3.675  13.771
   318G11  C07W21510  10.435   3.644  13.533
   318G11  C08321511  10.410   3.920  13.554
   318G11  C07J21512  10.140   3.814  13.774
   318G11  C06O21513  10.107   4.102  13.782
   318G11  C06M21514  10.295   4.123  13.634
   328G11  C07121515   3.904   1.641   5.771
   328G11  C07L21516   3.854   1.575   5.649
   328G11  C07M21517   3.745   1.489   5.655
   328G11  C07Y21518   3.697   1.417   5.544
   328G11  C08121519   3.758   1.430   5.417
   328G11  C08221520   3.704   1.357   5.308
   328G11  C0DI21521   3.742   1.357   5.168
   328G11  C0DH21522   3.842   1.428   5.094
   328G11  C0DG21523   3.838   1.403   4.947
   328G11  C0E921524   3.933   1.373   4.851
   328G11  C0E821525   3.862   1.268   4.761
   328G11  C0E721526   3.907   1.203   4.631
   328G11  C0EB21527   4.021   1.256   4.560
   328G11  C0EF21528   4.066   1.225   4.428
   328G11  C0EE21529   4.070   1.101   4.362
   328G11  C0FD21530   4.189   1.049   4.304
   328G11  C0FE21531   4.319   1.078   4.341
   328G11  H01B21532   4.337   1.142   4.425
   328G11  C0FF21533   4.434   1.040   4.266
   328G11  H01A21534   4.532   1.074   4.294
   328G11  C0FG21535   4.419   0.959   4.157
   328G11  H01821536   4.503   0.930   4.096
   328G11  C0FH21537   4.294   0.908   4.125
   328G11  C0FI21538   4.275   0.813   4.017
   328G11  H01921539   4.357   0.789   3.951
   328G11  O00K21540   4.153   0.770   3.979
   328G11  C0FL21541   4.045   0.822   4.047
   328G11  C0FK21542   4.057   0.911   4.160
   328G11  C0FM21543   3.935   0.959   4.219
   328G11  C0FN21544   3.808   0.919   4.171
   328G11  C0FP21545   3.805   0.833   4.059
   328G11  C0GO21546   3.690   0.778   4.011
   328G11  C0GN21547   3.679   0.664   3.933
   328G11  C0GR21548   3.796   0.624   3.871
   328G11  C0GS21549   3.798   0.520   3.777
   328G11  H01Q21550   3.893   0.488   3.736
   328G11  C0GT21551   3.679   0.447   3.756
   328G11  H01O21552   3.681   0.360   3.693
   328G11  C0GU21553   3.565   0.475   3.834
   328G11  H01P21554   3.480   0.409   3.828
   328G11  O00L21555   3.915   0.684   3.905
   328G11  C0GM21556   3.562   0.592   3.920
   328G11  C0GL21557   3.451   0.630   4.005
   328G11  H01R21558   3.363   0.568   4.016
   328G11  C0GK21559   3.460   0.747   4.082
   328G11  C0GP21560   3.385   0.809   4.188
   328G11  C0E221561   3.439   0.938   4.215
   328G11  C0E121562   3.398   0.961   4.350
   328G11  C0DU21563   3.482   1.004   4.458
   328G11  C0DT21564   3.609   1.065   4.449
   328G11  C0E421565   3.702   1.041   4.350
   328G11  C0E521566   3.825   1.073   4.404
   328G11  C0DS21567   3.680   1.090   4.567
   328G11  C0DR21568   3.619   1.060   4.690
   328G11  C0DD21569   3.652   1.106   4.816
   328G11  C0DC21570   3.548   1.045   4.905
   328G11  C0DP21571   3.463   0.955   4.839
   328G11  C0DA21572   3.361   0.860   4.889
   328G11  C0D921573   3.300   0.840   5.027
   328G11  C0CR21574   3.204   0.738   5.058
   328G11  C0C021575   3.173   0.646   4.963
   328G11  C0BZ21576   3.077   0.547   4.972
   328G11  C0C121577   3.037   0.466   4.861
   328G11  C0C721578   2.943   0.367   4.880
   328G11  C0C621579   2.900   0.288   4.772
   328G11  C0C921580   2.804   0.195   4.792
   328G11  C0B821581   2.753   0.127   4.679
   328G11  C0B721582   2.655   0.025   4.690
   328G11  C0B621583   2.579  -0.051   4.590
   328G11  C0B521584   2.515   0.013   4.472
   328G11  H00Z21585   2.541   0.110   4.431
   328G11  C0B421586   2.394  -0.070   4.442
   328G11  H01021587   2.307  -0.045   4.384
   328G11  C0B321588   2.381  -0.176   4.536
   328G11  C0AP21589   2.280  -0.235   4.620
   328G11  C0AQ21590   2.345  -0.233   4.746
   328G11  C0AR21591   2.268  -0.228   4.864
   328G11  C0AS21592   2.338  -0.178   4.970
   328G11  C0AT21593   2.458  -0.112   4.970
   328G11  C0BA21594   2.522  -0.105   4.852
   328G11  C0AU21595   2.500  -0.038   5.077
   328G11  C0BE21596   2.598   0.056   5.055
   328G11  C0BI21597   2.631   0.138   5.163
   328G11  C0BJ21598   2.566   0.124   5.288
   328G11  C0BK21599   2.604   0.200   5.391
   328G11  C0BW21600   2.693   0.305   5.375
   328G11  C0BV21601   2.759   0.321   5.251
   328G11  C0BU21602   2.844   0.426   5.234
   328G11  C0BX21603   2.922   0.433   5.112
   328G11  C0BT21604   2.879   0.511   5.338
   328G11  C0CD21605   2.979   0.605   5.323
   328G11  C0CB21606   3.047   0.621   5.201
   328G11  C0CE21607   3.014   0.694   5.430
   328G11  C0CK21608   2.954   0.671   5.560
   328G11  C0BS21609   2.864   0.563   5.580
   328G11  C0CJ21610   2.802   0.543   5.705
   328G11  C0BP21611   2.710   0.441   5.718
   328G11  C0CI21612   2.653   0.409   5.846
   328G11  C0CH21613   2.596   0.283   5.852
   328G11  H01221614   2.592   0.240   5.951
   328G11  C0BN21615   2.542   0.214   5.744
   328G11  C0CG21616   2.442   0.118   5.765
   328G11  C0CF21617   2.399   0.070   5.890
   328G11  H01321618   2.450   0.098   5.981
   328G11  O00G21619   2.284  -0.004   5.906
   328G11  C0AA21620   2.216  -0.051   5.791
   328G11  C0A921621   2.100  -0.132   5.804
   328G11  H00U21622   2.067  -0.162   5.902
   328G11  C0A821623   2.037  -0.175   5.692
   328G11  H00V21624   1.957  -0.246   5.704
   328G11  C0A721625   2.081  -0.147   5.561
   328G11  C0A621626   2.204  -0.076   5.545
   328G11  C0A521627   2.271  -0.050   5.424
   328G11  C0A421628   2.224  -0.114   5.302
   328G11  C0A321629   2.112  -0.188   5.249
   328G11  C0A221630   2.013  -0.244   5.324
   328G11  C0A121631   1.890  -0.285   5.260
   328G11  C0A021632   1.841  -0.316   5.124
   328G11  C09Z21633   1.708  -0.356   5.117
   328G11  C09Y21634   1.654  -0.391   4.991
   328G11  H00Y21635   1.553  -0.430   4.986
   328G11  C09X21636   1.729  -0.376   4.874
   328G11  C09W21637   1.671  -0.418   4.756
   328G11  H00R21638   1.570  -0.455   4.766
   328G11  C0AX21639   1.731  -0.408   4.634
   328G11  H00S21640   1.674  -0.428   4.544
   328G11  C0AW21641   1.856  -0.346   4.627
   328G11  H00T21642   1.901  -0.322   4.532
   328G11  C0AN21643   1.933  -0.311   4.746
   328G11  C0AO21644   2.072  -0.272   4.743
   328G11  C0AM21645   1.864  -0.330   4.875
   328G11  C0B221646   1.612  -0.361   5.222
   328G11  O00D21647   1.495  -0.395   5.197
   328G11  C0B121648   1.657  -0.326   5.351
   328G11  H00W21649   1.582  -0.320   5.429
   328G11  C0AL21650   1.922  -0.309   5.002
   328G11  C0AK21651   2.058  -0.267   4.991
   328G11  C0B021652   1.793  -0.284   5.362
   328G11  C0AZ21653   1.849  -0.233   5.483
   328G11  H00X21654   1.786  -0.232   5.571
   328G11  C0AJ21655   2.131  -0.217   5.109
   328G11  C0AH21656   2.319  -0.120   5.199
   328G11  C0AE21657   2.388   0.024   5.416
   328G11  C0AD21658   2.433   0.092   5.528
   328G11  C0AY21659   1.990  -0.215   5.465
   328G11  C0AB21660   2.263  -0.016   5.661
   328G11  C0AC21661   2.379   0.062   5.653
   328G11  C0BM21662   2.579   0.259   5.620
   328G11  C0CM21663   2.662   0.501   5.957
   328G11  C09M21664   2.761   0.607   5.939
   328G11  C09821665   2.766   0.701   6.047
   328G11  C08R21666   2.864   0.797   6.099
   328G11  C08Q21667   2.829   0.877   6.214
   328G11  C08P21668   2.900   0.941   6.326
   328G11  C08Y21669   2.836   0.947   6.447
   328G11  C09721670   2.733   0.852   6.464
   328G11  C09621671   2.743   0.791   6.586
   328G11  C09021672   2.820   0.882   6.664
   328G11  C09521673   2.870   0.865   6.797
   328G11  C09421674   2.954   0.955   6.873
   328G11  C08J21675   3.033   1.056   6.821
   328G11  C08I21676   3.147   1.061   6.903
   328G11  C08H21677   3.261   1.119   6.836
   328G11  C08G21678   3.219   1.125   6.689
   328G11  C08F21679   3.263   1.174   6.558
   328G11  C08E21680   3.373   1.265   6.547
   328G11  C05921681   3.434   1.336   6.654
   328G11  C05821682   3.525   1.446   6.633
   328G11  C05721683   3.596   1.516   6.737
   328G11  C05621684   3.557   1.478   6.866
   328G11  C05521685   3.454   1.401   6.893
   328G11  C05421686   3.463   1.363   7.028
   328G11  C05321687   3.589   1.415   7.083
   328G11  C05221688   3.657   1.384   7.206
   328G11  C05121689   3.601   1.286   7.298
   328G11  C05U21690   3.480   1.201   7.277
   328G11  C05T21691   3.392   1.180   7.167
   328G11  C06K21692   3.276   1.119   7.217
   328G11  H00J21693   3.185   1.125   7.158
   328G11  C06L21694   3.295   1.087   7.349
   328G11  H00I21695   3.218   1.046   7.414
   328G11  C05V21696   3.421   1.139   7.385
   328G11  C06J21697   3.487   1.130   7.508
   328G11  H00K21698   3.441   1.077   7.590
   328G11  C05X21699   3.618   1.174   7.521
   328G11  C06I21700   3.699   1.164   7.640
   328G11  H00L21701   3.655   1.104   7.718
   328G11  C04Z21702   3.835   1.209   7.655
   328G11  C06H21703   3.911   1.175   7.767
   328G11  H00H21704   3.872   1.108   7.843
   328G11  C04Y21705   4.051   1.215   7.772
   328G11  C06G21706   4.128   1.176   7.888
   328G11  O00921707   4.078   1.132   7.987
   328G11  O00821708   4.264   1.217   7.886
   328G11  C04P21709   4.309   1.299   7.793
   328G11  C04J21710   4.449   1.334   7.781
   328G11  C04Q21711   4.551   1.301   7.874
   328G11  H00E21712   4.515   1.256   7.965
   328G11  C04M21713   4.689   1.320   7.842
   328G11  C04R21714   4.797   1.291   7.926
   328G11  H00F21715   4.781   1.246   8.023
   328G11  C04S21716   4.925   1.319   7.886
   328G11  H00G21717   5.010   1.301   7.950
   328G11  O00721718   4.962   1.365   7.762
   328G11  C03V21719   4.859   1.394   7.683
   328G11  C03U21720   4.888   1.451   7.560
   328G11  O00621721   5.022   1.460   7.535
   328G11  C03F21722   5.063   1.523   7.426
   328G11  C03E21723   4.972   1.571   7.329
   328G11  C03D21724   4.835   1.565   7.354
   328G11  C03C21725   4.744   1.617   7.264
   328G11  C03B21726   4.800   1.676   7.150
   328G11  C03A21727   4.711   1.747   7.068
   328G11  C03921728   4.569   1.731   7.075
   328G11  C03821729   4.523   1.779   6.945
   328G11  C03721730   4.638   1.837   6.887
   328G11  C03621731   4.632   1.903   6.766
   328G11  C02R21732   4.734   1.952   6.682
   328G11  C03521733   4.666   1.988   6.564
   328G11  C03R21734   4.533   1.961   6.570
   328G11  C03S21735   4.458   1.911   6.456
   328G11  C04921736   4.342   1.855   6.482
   328G11  C04821737   4.313   1.825   6.619
   328G11  C03P21738   4.398   1.839   6.733
   328G11  C04721739   4.176   1.783   6.632
   328G11  C04621740   4.117   1.751   6.752
   328G11  C04521741   4.166   1.739   6.881
   328G11  C03T21742   4.290   1.742   6.936
   328G11  C04421743   4.287   1.706   7.070
   328G11  C04321744   4.149   1.693   7.103
   328G11  C04221745   4.132   1.604   7.211
   328G11  C04121746   4.272   1.584   7.261
   328G11  C04021747   4.300   1.527   7.387
   328G11  C03Z21748   4.433   1.502   7.446
   328G11  C04H21749   4.402   1.438   7.566
   328G11  C04G21750   4.269   1.416   7.579
   328G11  C03N21751   4.566   1.538   7.408
   328G11  C03Y21752   4.658   1.486   7.501
   328G11  C03X21753   4.624   1.421   7.627
   328G11  C04F21754   4.200   1.458   7.468
   328G11  C04E21755   4.067   1.421   7.453
   328G11  C04O21756   4.015   1.333   7.559
   328G11  C04D21757   3.986   1.443   7.347
   328G11  C04V21758   3.854   1.392   7.341
   328G11  C04W21759   3.802   1.309   7.442
   328G11  C04C21760   4.007   1.526   7.233
   328G11  C04L21761   3.877   1.537   7.170
   328G11  C04U21762   3.846   1.625   7.051
   328G11  C05Q21763   3.741   1.595   6.966
   328G11  C05P21764   3.769   1.632   6.835
   328G11  C04T21765   3.899   1.682   6.831
   328G11  C04B21766   3.941   1.675   6.962
   328G11  C03M21767   4.366   1.653   7.179
   328G11  C04A21768   4.077   1.700   6.986
   328G11  C05H21769   3.986   1.726   6.724
   328G11  C05G21770   3.965   1.729   6.582
   328G11  C05F21771   3.845   1.697   6.514
   328G11  C05E21772   3.842   1.661   6.375
   328G11  C05L21773   3.922   1.678   6.253
   328G11  C05K21774   4.048   1.742   6.259
   328G11  C05J21775   4.129   1.780   6.375
   328G11  C06621776   4.106   1.759   6.126
   328G11  C06521777   4.042   1.720   6.006
   328G11  C06421778   3.916   1.660   6.011
   328G11  C06N21779   4.099   1.747   5.884
   328G11  C06921780   4.228   1.796   5.876
   328G11  C06P21781   4.291   1.815   5.749
   328G11  C06R21782   4.424   1.861   5.741
   328G11  C06B21783   4.490   1.888   5.860
   328G11  C06S21784   4.622   1.933   5.854
   328G11  C02G21785   4.691   1.963   5.971
   328G11  C02F21786   4.828   1.992   5.963
   328G11  C02721787   4.894   1.995   5.840
   328G11  C02621788   5.030   2.016   5.838
   328G11  C00E21789   5.099   2.022   5.715
   328G11  C00D21790   5.235   2.026   5.713
   328G11  C00C21791   5.299   2.019   5.590
   328G11  C00B21792   5.242   1.993   5.472
   328G11  C01521793   5.102   1.983   5.476
   328G11  C07F21794   5.034   1.945   5.361
   328G11  C07E21795   4.896   1.909   5.371
   328G11  C06W21796   4.826   1.926   5.490
   328G11  C06V21797   4.894   1.972   5.601
   328G11  C06X21798   4.689   1.897   5.494
   328G11  C07B21799   4.625   1.857   5.382
   328G11  C07C21800   4.698   1.845   5.262
   328G11  C0FU21801   4.631   1.796   5.145
   328G11  C0F721802   4.698   1.783   5.024
   328G11  C0F621803   4.635   1.737   4.913
   328G11  C0F821804   4.706   1.732   4.791
   328G11  C0F921805   4.640   1.689   4.677
   328G11  C0FA21806   4.703   1.708   4.558
   328G11  C0FZ21807   4.833   1.763   4.553
   328G11  C0G021808   4.882   1.801   4.425
   328G11  C0GD21809   4.818   1.766   4.307
   328G11  C0FC21810   4.696   1.703   4.313
   328G11  C0GH21811   4.627   1.670   4.195
   328G11  C0EY21812   4.509   1.598   4.201
   328G11  C0EX21813   4.451   1.544   4.086
   328G11  C0EW21814   4.342   1.457   4.097
   328G11  C0FR21815   4.281   1.403   3.985
   328G11  H01D21816   4.200   1.332   3.985
   328G11  C0FS21817   4.316   1.452   3.855
   328G11  H01C21818   4.264   1.427   3.764
   328G11  C0GJ21819   4.420   1.546   3.844
   328G11  H01N21820   4.459   1.596   3.756
   328G11  C0EV21821   4.287   1.430   4.221
   328G11  C0FT21822   4.171   1.356   4.242
   328G11  H01E21823   4.124   1.292   4.168
   328G11  C0EU21824   4.338   1.501   4.334
   328G11  C0ET21825   4.278   1.497   4.462
   328G11  C0EI21826   4.322   1.544   4.582
   328G11  C0F121827   4.443   1.607   4.571
   328G11  C0F021828   4.504   1.630   4.443
   328G11  C0EH21829   4.252   1.522   4.705
   328G11  C0EG21830   4.135   1.438   4.720
   328G11  C0EJ21831   4.308   1.582   4.816
   328G11  C0F321832   4.442   1.645   4.808
   328G11  C0EK21833   4.243   1.587   4.937
   328G11  C0EL21834   4.116   1.520   4.947
   328G11  C0EM21835   4.060   1.542   5.082
   328G11  C0EN21836   4.111   1.635   5.170
   328G11  C07I21837   4.046   1.637   5.292
   328G11  C07421838   4.095   1.698   5.409
   328G11  C07321839   4.028   1.670   5.528
   328G11  C07221840   4.092   1.718   5.639
   328G11  C07521841   4.225   1.748   5.395
   328G11  C07621842   4.294   1.744   5.271
   328G11  C07821843   4.425   1.780   5.267
   328G11  C07G21844   4.292   1.777   5.513
   328G11  C07021845   4.424   1.817   5.502
   328G11  C07Z21846   3.945   1.544   5.293
   328G11  C07721847   4.235   1.695   5.158
   328G11  C0EO21848   4.303   1.663   5.040
   328G11  C0F421849   4.434   1.708   5.030
   328G11  C0EQ21850   4.169   1.407   4.479
   328G11  C0FQ21851   4.496   1.585   3.960
   328G11  C0GI21852   4.603   1.674   3.958
   328G11  H01L21853   4.632   1.713   3.861
   328G11  C0EZ21854   4.448   1.583   4.326
   328G11  C0GG21855   4.676   1.713   4.070
   328G11  C0GF21856   4.790   1.786   4.069
   328G11  H01M21857   4.837   1.833   3.983
   328G11  C0GE21858   4.866   1.796   4.179
   328G11  H01K21859   4.950   1.862   4.161
   328G11  O00J21860   5.012   1.851   4.416
   328G11  C0GA21861   5.077   1.882   4.530
   328G11  C0G921862   5.198   1.956   4.519
   328G11  H01H21863   5.237   1.991   4.424
   328G11  C0G821864   5.276   1.982   4.632
   328G11  C0G721865   5.402   2.050   4.640
   328G11  H01I21866   5.438   2.094   4.548
   328G11  O00I21867   5.477   2.078   4.749
   328G11  C0G621868   5.424   2.019   4.860
   328G11  H01J21869   5.485   2.045   4.945
   328G11  C02D21870   5.297   1.958   4.876
   328G11  C02C21871   5.243   1.925   4.998
   328G11  C01721872   5.315   1.938   5.123
   328G11  C01621873   5.245   1.946   5.245
   328G11  O00121874   5.451   1.938   5.120
   328G11  C01821875   5.524   1.938   5.238
   328G11  C00921876   5.461   1.961   5.362
   328G11  C00821877   5.519   1.976   5.490
   328G11  C00721878   5.653   1.965   5.552
   328G11  C00621879   5.767   1.923   5.470
   328G11  C00521880   5.892   1.884   5.524
   328G11  C00421881   5.931   1.874   5.667
   328G11  C00321882   5.864   1.894   5.795
   328G11  C00221883   5.932   1.872   5.918
   328G11  C00P21884   5.868   1.896   6.047
   328G11  C00O21885   5.936   1.865   6.167
   328G11  C00N21886   5.867   1.879   6.289
   328G11  C01021887   5.924   1.836   6.408
   328G11  C01121888   5.858   1.840   6.528
   328G11  C01Q21889   5.916   1.788   6.643
   328G11  C01U21890   6.048   1.731   6.645
   328G11  C01221891   6.118   1.737   6.526
   328G11  H00021892   6.223   1.713   6.532
   328G11  C01V21893   6.096   1.681   6.765
   328G11  H00721894   6.194   1.636   6.777
   328G11  O00521895   6.020   1.672   6.876
   328G11  C01W21896   5.905   1.742   6.882
   328G11  C03121897   5.838   1.747   7.004
   328G11  C03221898   5.720   1.813   7.018
   328G11  H00A21899   5.672   1.817   7.115
   328G11  C03321900   5.655   1.868   6.905
   328G11  H00B21901   5.556   1.910   6.917
   328G11  C01O21902   5.721   1.853   6.778
   328G11  C01N21903   5.656   1.890   6.664
   328G11  C01M21904   5.510   1.926   6.659
   328G11  C01L21905   5.375   1.908   6.727
   328G11  C01K21906   5.276   1.972   6.657
   328G11  C01Y21907   5.140   1.958   6.668
   328G11  C02I21908   5.090   1.886   6.776
   328G11  C02N21909   4.949   1.877   6.788
   328G11  C02M21910   4.899   1.813   6.910
   328G11  C02L21911   4.984   1.759   7.006
   328G11  C02K21912   5.122   1.746   6.973
   328G11  C02U21913   5.203   1.672   7.063
   328G11  C02V21914   5.157   1.630   7.187
   328G11  C03H21915   5.244   1.582   7.290
   328G11  H00C21916   5.350   1.598   7.293
   328G11  C02W21917   5.327   1.642   7.016
   328G11  C02X21918   5.375   1.694   6.896
   328G11  C02Y21919   5.500   1.619   6.876
   328G11  H00821920   5.575   1.630   6.799
   328G11  C02Z21921   5.530   1.540   7.004
   328G11  O00421922   5.626   1.474   7.035
   328G11  O00321923   5.415   1.560   7.078
   328G11  C02J21924   5.180   1.810   6.856
   328G11  C01Z21925   5.066   1.998   6.557
   328G11  C02021926   5.126   2.023   6.432
   328G11  C01I21927   5.265   2.034   6.418
   328G11  C01H21928   5.334   2.030   6.299
   328G11  C00K21929   5.472   2.012   6.299
   328G11  C01S21930   5.539   1.986   6.416
   328G11  C01421931   5.669   1.938   6.422
   328G11  C00J21932   5.537   2.000   6.178
   328G11  C00I21933   5.465   2.011   6.061
   328G11  C00H21934   5.325   2.030   6.065
   328G11  C00G21935   5.249   2.026   5.952
   328G11  C00S21936   5.531   2.001   5.939
   328G11  C00T21937   5.445   2.008   5.829
   328G11  C00U21938   5.513   2.010   5.710
   328G11  C00R21939   5.669   1.961   5.934
   328G11  C00L21940   5.676   1.966   6.175
   328G11  C02821941   5.259   2.033   6.185
   328G11  C02321942   5.119   2.022   6.192
   328G11  C02421943   5.047   2.012   6.074
   328G11  C02121944   5.051   2.015   6.315
   328G11  C02221945   4.913   1.996   6.314
   328G11  C02H21946   4.845   1.982   6.199
   328G11  C03021947   4.706   1.965   6.204
   328G11  C03421948   4.642   1.960   6.328
   328G11  C02P21949   4.857   1.990   6.438
   328G11  C02B21950   4.929   1.981   6.560
   328G11  C01J21951   5.334   2.018   6.539
   328G11  C01X21952   5.323   1.806   6.822
   328G11  C01T21953   5.466   1.982   6.534
   328G11  H00921954   5.879   1.705   7.094
   328G11  C01P21955   5.849   1.799   6.766
   328G11  C01R21956   5.730   1.893   6.540
   328G11  C00Z21957   6.060   1.794   6.408
   328G11  O00021958   6.133   1.800   6.294
   328G11  C00M21959   5.736   1.929   6.295
   328G11  C00Y21960   6.065   1.821   6.173
   328G11  C01321961   6.129   1.801   6.049
   328G11  H00121962   6.232   1.768   6.052
   328G11  C00Q21963   5.739   1.949   6.054
   328G11  C00121964   6.063   1.821   5.921
   328G11  C00021965   6.127   1.796   5.798
   328G11  H00621966   6.217   1.738   5.790
   328G11  C00W21967   5.732   1.937   5.812
   328G11  C01G21968   6.061   1.814   5.679
   328G11  H00521969   6.126   1.791   5.595
   328G11  C01C21970   5.982   1.864   5.412
   328G11  H00221971   6.087   1.840   5.407
   328G11  C01B21972   5.896   1.868   5.298
   328G11  C01D21973   5.936   1.850   5.155
   328G11  H00321974   6.034   1.821   5.121
   328G11  C01E21975   5.842   1.881   5.061
   328G11  H00421976   5.876   1.885   4.959
   328G11  O00221977   5.706   1.916   5.092
   328G11  C01A21978   5.765   1.905   5.327
   328G11  C00V21979   5.648   1.968   5.696
   328G11  C01921980   5.667   1.919   5.225
   328G11  C02E21981   5.109   1.895   5.005
   328G11  C0FX21982   5.041   1.864   4.890
   328G11  C0FW21983   4.907   1.817   4.898
   328G11  C0GB21984   5.099   1.885   4.770
   328G11  C0G321985   5.045   1.897   5.127
   328G11  C07H21986   4.904   1.866   5.135
   328G11  C0GC21987   5.226   1.938   4.758
   328G11  C0G221988   5.031   1.851   4.655
   328G11  C0G121989   4.907   1.794   4.665
   328G11  C0FB21990   4.638   1.679   4.438
   328G11  C0F221991   4.510   1.647   4.684
   328G11  C0FY21992   4.839   1.781   4.786
   328G11  C0F521993   4.501   1.705   4.913
   328G11  C0FV21994   4.836   1.817   5.020
   328G11  C07921995   4.494   1.764   5.146
   328G11  C07A21996   4.488   1.828   5.383
   328G11  C06Y21997   4.622   1.898   5.616
   328G11  C07D21998   4.835   1.871   5.258
   328G11  C01F21999   5.111   1.933   5.243
   328G11  C00A22000   5.316   1.968   5.361
   328G11  C00X22001   5.437   2.010   5.595
   328G11  C00F22002   5.311   2.027   5.831
   328G11  C02922003   5.034   1.993   5.596
   328G11  C02522004   5.109   2.017   5.951
   328G11  C06U22005   4.824   1.976   5.723
   328G11  C02A22006   4.908   1.993   6.079
   328G11  C05Y22007   4.629   1.952   6.090
   328G11  C05Z22008   4.495   1.910   6.100
   328G11  C06022009   4.434   1.900   6.222
   328G11  C06222010   4.307   1.844   6.238
   328G11  C06T22011   4.687   1.935   5.729
   328G11  C06A22012   4.423   1.879   5.983
   328G11  C06Z22013   4.491   1.864   5.618
   328G11  C06Q22014   4.222   1.772   5.637
   328G11  C06822015   4.295   1.832   5.995
   328G11  C06722016   4.236   1.809   6.123
   328G11  C06322017   3.857   1.634   6.133
   328G11  C06C22018   3.739   1.559   6.137
   328G11  C06D22019   3.673   1.532   6.253
   328G11  C06E22020   3.560   1.442   6.271
   328G11  C07Q22021   3.516   1.382   6.158
   328G11  C07P22022   3.573   1.412   6.035
   328G11  C07T22023   3.523   1.352   5.921
   328G11  C07U22024   3.579   1.374   5.795
   328G11  C07V22025   3.529   1.313   5.684
   328G11  C08422026   3.419   1.228   5.698
   328G11  C08C22027   3.361   1.205   5.821
   328G11  C08B22028   3.263   1.111   5.836
   328G11  C08A22029   3.216   1.076   5.956
   328G11  C08922030   3.265   1.140   6.071
   328G11  C08822031   3.210   1.101   6.196
   328G11  C08722032   3.263   1.158   6.310
   328G11  C08622033   3.362   1.256   6.300
   328G11  C08X22034   3.102   1.018   6.207
   328G11  C08T22035   3.068   0.937   6.089
   328G11  C08D22036   3.363   1.235   6.056
   328G11  C08U22037   3.130   0.973   5.972
   328G11  C08V22038   3.079   0.908   5.862
   328G11  C0CY22039   3.126   0.938   5.740
   328G11  C0CX22040   3.091   0.854   5.640
   328G11  C0CW22041   3.141   0.876   5.514
   328G11  C0CV22042   3.230   0.983   5.500
   328G11  C0D422043   3.269   1.062   5.606
   328G11  C0CU22044   3.294   0.994   5.378
   328G11  C0CT22045   3.264   0.907   5.268
   328G11  C0CS22046   3.169   0.809   5.287
   328G11  C0D622047   3.388   1.086   5.369
   328G11  C0EC22048   3.430   1.168   5.470
   328G11  C07X22049   3.538   1.256   5.458
   328G11  C0DL22050   3.449   1.099   5.247
   328G11  C0DK22051   3.555   1.189   5.231
   328G11  C0DN22052   3.591   1.188   5.103
   328G11  C0D822053   3.431   1.025   5.130
   328G11  C08W22054   2.997   0.805   5.902
   328G11  C0CQ22055   2.933   0.725   5.792
   328G11  C09322056   3.219   1.041   5.727
   328G11  C09222057   3.373   1.154   5.592
   328G11  C08522058   3.413   1.270   5.933
   328G11  C07S22059   3.413   1.295   6.170
   328G11  C06F22060   3.511   1.406   6.397
   328G11  C07O22061   3.678   1.502   6.023
   328G11  C07N22062   3.739   1.522   5.899
   328G11  C05D22063   3.722   1.596   6.361
   328G11  C05C22064   3.661   1.569   6.481
   328G11  C05N22065   3.739   1.629   6.581
   328G11  C05M22066   4.087   1.762   6.520
   328G11  C05I22067   4.255   1.828   6.369
   328G11  C06122068   4.511   1.928   6.335
   328G11  C02Q22069   4.723   1.977   6.438
   328G11  C02O22070   4.873   1.936   6.684
   328G11  C03Q22071   4.518   1.903   6.694
   328G11  C03O22072   4.400   1.783   6.870
   328G11  C03L22073   4.509   1.659   7.186
   328G11  C02S22074   4.754   1.803   6.950
   328G11  C02T22075   4.937   1.691   7.121
   328G11  C03K22076   4.601   1.607   7.287
   328G11  C03I22077   5.024   1.635   7.213
   328G11  C03G22078   5.198   1.524   7.404
   328G11  H00D22079   5.268   1.475   7.470
   328G11  C03J22080   4.790   1.494   7.466
   328G11  C03W22081   4.718   1.378   7.715
   328G11  C04I22082   4.496   1.396   7.664
   328G11  C04K22083   4.228   1.336   7.689
   328G11  C04N22084   4.096   1.295   7.669
   328G11  C04X22085   3.885   1.286   7.551
   328G11  C05022086   3.672   1.260   7.419
   328G11  C05W22087   3.785   1.437   7.229
   328G11  C05S22088   3.399   1.238   7.032
   328G11  C05R22089   3.634   1.503   6.986
   328G11  C05O22090   3.703   1.599   6.716
   328G11  C05B22091   3.561   1.474   6.503
   328G11  C05A22092   3.411   1.306   6.798
   328G11  C07R22093   3.411   1.308   6.414
   328G11  C08N22094   3.207   1.123   6.439
   328G11  C08M22095   3.087   1.046   6.444
   328G11  C08L22096   3.025   1.014   6.571
   328G11  C09122097   3.350   1.210   6.893
   328G11  C09K22098   3.153   0.937   6.985
   328G11  H00M22099   3.242   0.886   7.017
   328G11  C08K22100   3.089   1.064   6.687
   328G11  C09J22101   3.017   0.880   6.978
   328G11  C09I22102   2.958   0.746   6.975
   328G11  C09L22103   2.946   0.654   7.084
   328G11  H00N22104   3.010   0.676   7.169
   328G11  C09Q22105   2.857   0.554   7.072
   328G11  H00O22106   2.844   0.490   7.158
   328G11  O00B22107   2.774   0.534   6.958
   328G11  C09G22108   2.778   0.632   6.855
   328G11  C09F22109   2.694   0.596   6.744
   328G11  O00A22110   2.613   0.488   6.776
   328G11  C09P22111   2.550   0.427   6.669
   328G11  H00P22112   2.504   0.332   6.690
   328G11  C09O22113   2.551   0.474   6.534
   328G11  C09D22114   2.618   0.593   6.509
   328G11  C09C22115   2.636   0.658   6.380
   328G11  C09N22116   2.631   0.615   6.247
   328G11  C09T22117   2.592   0.491   6.207
   328G11  C09S22118   2.496   0.423   6.289
   328G11  C0CP22119   2.405   0.372   6.192
   328G11  C0CN22120   2.440   0.398   6.061
   328G11  C0CO22121   2.345   0.363   5.971
   328G11  H01422122   2.353   0.397   5.868
   328G11  C0CZ22123   2.229   0.295   6.014
   328G11  H01522124   2.152   0.266   5.944
   328G11  C0D022125   2.200   0.265   6.146
   328G11  C0G522126   2.076   0.212   6.198
   328G11  H01F22127   1.988   0.192   6.138
   328G11  C0G422128   2.057   0.197   6.328
   328G11  H01G22129   1.953   0.183   6.356
   328G11  O00H22130   2.150   0.223   6.425
   328G11  C0D222131   2.262   0.283   6.379
   328G11  C09V22132   2.357   0.337   6.472
   328G11  H00Q22133   2.336   0.324   6.577
   328G11  C0D122134   2.284   0.313   6.242
   328G11  C09R22135   2.470   0.414   6.433
   328G11  C09H22136   2.863   0.739   6.868
   328G11  C09E22137   2.686   0.661   6.618
   328G11  C09B22138   2.679   0.787   6.364
   328G11  C08Z22139   2.900   0.946   6.566
   328G11  C08O22140   3.028   1.002   6.321
   328G11  C09A22141   2.693   0.832   6.232
   328G11  C08S22142   2.988   0.823   6.047
   328G11  C09922143   2.667   0.719   6.155
   328G11  C09U22144   2.570   0.466   6.069
   328G11  C0BO22145   2.670   0.364   5.606
   328G11  C0CL22146   2.834   0.627   5.815
   328G11  C0D322147   2.991   0.753   5.662
   328G11  C0D522148   3.111   0.788   5.411
   328G11  C0BR22149   2.821   0.491   5.466
   328G11  C0BQ22150   2.727   0.387   5.480
   328G11  C0BL22151   2.535   0.192   5.512
   328G11  C0AF22152   2.459   0.034   5.299
   328G11  C0BH22153   2.729   0.237   5.146
   328G11  C0BG22154   2.787   0.257   5.022
   328G11  C0BD22155   2.662   0.069   4.932
   328G11  C0AG22156   2.435  -0.042   5.196
   328G11  C0AI22157   2.264  -0.176   5.086
   328G11  C0AV22158   2.133  -0.259   4.869
   328G11  C0BB22159   2.471  -0.175   4.741
   328G11  O00C22160   2.138  -0.246   4.621
   328G11  C0BC22161   2.509  -0.169   4.608
   328G11  C0B922162   2.617  -0.010   4.823
   328G11  O00E22163   2.794   0.154   4.551
   328G11  C0CA22164   2.896   0.240   4.532
   328G11  O00F22165   2.929   0.249   4.413
   328G11  C0BF22166   2.749   0.175   4.914
   328G11  C0C522167   2.951   0.309   4.645
   328G11  C0C422168   3.056   0.400   4.625
   328G11  H01122169   3.094   0.420   4.526
   328G11  C0C822170   2.884   0.352   5.006
   328G11  C0C222171   3.099   0.475   4.737
   328G11  C0C322172   3.192   0.581   4.728
   328G11  C0DY22173   3.254   0.621   4.610
   328G11  H01622174   3.241   0.594   4.506
   328G11  C0DX22175   3.329   0.739   4.644
   328G11  C0DW22176   3.347   0.837   4.546
   328G11  C0BY22177   3.023   0.529   5.100
   328G11  C0DB22178   3.229   0.663   4.835
   328G11  C0CC22179   3.146   0.720   5.184
   328G11  C0D722180   3.329   0.921   5.141
   328G11  C0DZ22181   3.316   0.764   4.790
   328G11  C0DM22182   3.520   1.082   5.036
   328G11  C0DQ22183   3.505   0.977   4.698
   328G11  C0DV22184   3.436   0.951   4.579
   328G11  C0E022185   3.321   0.846   4.405
   328G11  C0FO22186   3.570   0.933   4.164
   328G11  C0E322187   3.332   0.740   4.305
   328G11  H01722188   3.346   0.635   4.323
   328G11  C0GV22189   3.573   0.829   4.067
   328G11  C0ES22190   3.693   0.975   4.224
   328G11  C0GQ22191   3.920   0.784   4.001
   328G11  C0FJ22192   4.182   0.955   4.200
   328G11  C0ED22193   3.946   1.045   4.336
   328G11  C0ER22194   4.136   1.332   4.373
   328G11  C0EP22195   4.107   1.370   4.597
   328G11  C0E622196   3.814   1.131   4.538
   328G11  C0DE22197   3.740   1.224   4.834
   328G11  C0EA22198   4.067   1.436   4.841
   328G11  C0DF22199   3.729   1.315   4.938
   328G11  C08022200   3.948   1.488   5.159
   328G11  C0DO22201   3.688   1.281   5.068
   328G11  C0DJ22202   3.598   1.276   5.337
   328G11  C07K22203   3.866   1.525   5.414
   328G11  C07W22204   3.585   1.335   5.564
   328G11  C08322205   3.690   1.462   5.783
   328G11  C07J22206   3.918   1.590   5.530
   328G11  C06O22207   4.031   1.709   5.765
   328G11  C06M22208   3.848   1.614   5.896
   338G11  C07122209   7.329   1.942  15.261
   338G11  C07L22210   7.418   2.008  15.346
   338G11  C07M22211   7.380   2.046  15.473
   338G11  C07Y22212   7.476   2.103  15.565
   338G11  C08122213   7.611   2.131  15.523
   338G11  C08222214   7.701   2.191  15.616
   338G11  C0DI22215   7.848   2.197  15.616
   338G11  C0DH22216   7.942   2.191  15.512
   338G11  C0DG22217   8.079   2.184  15.561
   338G11  C0E922218   8.194   2.256  15.514
   338G11  C0E822219   8.254   2.325  15.632
   338G11  C0E722220   8.368   2.421  15.639
   338G11  C0EB22221   8.455   2.445  15.522
   338G11  C0EF22222   8.552   2.550  15.497
   338G11  C0EE22223   8.559   2.677  15.548
   338G11  C0FD22224   8.577   2.793  15.466
   338G11  C0FE22225   8.558   2.796  15.326
   338G11  H01B22226   8.536   2.701  15.281
   338G11  C0FF22227   8.570   2.908  15.245
   338G11  H01A22228   8.558   2.905  15.137
   338G11  C0FG22229   8.606   3.028  15.300
   338G11  H01822230   8.623   3.115  15.238
   338G11  C0FH22231   8.625   3.034  15.440
   338G11  C0FI22232   8.653   3.158  15.515
   338G11  H01922233   8.646   3.248  15.455
   338G11  O00K22234   8.688   3.165  15.645
   338G11  C0FL22235   8.676   3.045  15.711
   338G11  C0FK22236   8.637   2.926  15.661
   338G11  C0FM22237   8.623   2.807  15.739
   338G11  C0FN22238   8.663   2.810  15.875
   338G11  C0FP22239   8.705   2.936  15.929
   338G11  C0GO22240   8.720   2.958  16.066
   338G11  C0GN22241   8.710   3.082  16.129
   338G11  C0GR22242   8.718   3.195  16.043
   338G11  C0GS22243   8.704   3.328  16.091
   338G11  H01Q22244   8.721   3.412  16.026
   338G11  C0GT22245   8.689   3.339  16.231
   338G11  H01O22246   8.680   3.441  16.265
   338G11  C0GU22247   8.673   3.228  16.315
   338G11  H01P22248   8.655   3.244  16.420
   338G11  O00L22249   8.728   3.175  15.903
   338G11  C0GM22250   8.688   3.090  16.271
   338G11  C0GL22251   8.670   2.975  16.349
   338G11  H01R22252   8.650   2.986  16.454
   338G11  C0GK22253   8.680   2.851  16.283
   338G11  C0GP22254   8.647   2.717  16.330
   338G11  C0E222255   8.669   2.628  16.213
   338G11  C0E122256   8.569   2.526  16.219
   338G11  C0DU22257   8.470   2.504  16.119
   338G11  C0DT22258   8.476   2.524  15.978
   338G11  C0E422259   8.559   2.607  15.912
   338G11  C0E522260   8.517   2.595  15.780
   338G11  C0DS22261   8.383   2.467  15.890
   338G11  C0DR22262   8.273   2.409  15.953
   338G11  C0DD22263   8.160   2.356  15.892
   338G11  C0DC22264   8.061   2.340  15.999
   338G11  C0DP22265   8.113   2.384  16.126
   338G11  C0DA22266   8.048   2.375  16.260
   338G11  C0D922267   7.907   2.324  16.293
   338G11  C0CR22268   7.872   2.299  16.429
   338G11  C0C022269   7.959   2.326  16.536
   338G11  C0BZ22270   7.939   2.300  16.672
   338G11  C0C122271   8.033   2.334  16.772
   338G11  C0C722272   8.020   2.282  16.897
   338G11  C0C622273   8.115   2.309  16.998
   338G11  C0C922274   8.102   2.250  17.118
   338G11  C0B822275   8.196   2.280  17.219
   338G11  C0B722276   8.203   2.209  17.342
   338G11  C0B622277   8.264   2.241  17.468
   338G11  C0B522278   8.297   2.376  17.508
   338G11  H00Z22279   8.302   2.465  17.447
   338G11  C0B422280   8.305   2.362  17.656
   338G11  H01022281   8.302   2.446  17.723
   338G11  C0B322282   8.278   2.228  17.689
   338G11  C0AP22283   8.210   2.152  17.788
   338G11  C0AQ22284   8.156   2.044  17.715
   338G11  C0AR22285   8.036   1.982  17.755
   338G11  C0AS22286   7.966   1.933  17.649
   338G11  C0AT22287   7.979   1.962  17.516
   338G11  C0BA22288   8.089   2.039  17.476
   338G11  C0AU22289   7.878   1.950  17.421
   338G11  C0BE22290   7.888   2.018  17.299
   338G11  C0BI22291   7.783   2.013  17.206
   338G11  C0BJ22292   7.663   1.953  17.245
   338G11  C0BK22293   7.553   1.952  17.162
   338G11  C0BW22294   7.561   2.006  17.036
   338G11  C0BV22295   7.680   2.070  16.995
   338G11  C0BU22296   7.693   2.119  16.867
   338G11  C0BX22297   7.811   2.184  16.833
   338G11  C0BT22298   7.582   2.107  16.782
   338G11  C0CD22299   7.600   2.153  16.652
   338G11  C0CB22300   7.722   2.215  16.609
   338G11  C0CE22301   7.499   2.137  16.556
   338G11  C0CK22302   7.373   2.098  16.602
   338G11  C0BS22303   7.354   2.055  16.738
   338G11  C0CJ22304   7.231   1.998  16.779
   338G11  C0BP22305   7.220   1.945  16.904
   338G11  C0CI22306   7.101   1.885  16.950
   338G11  C0CH22307   7.114   1.793  17.057
   338G11  H01222308   7.030   1.727  17.074
   338G11  C0BN22309   7.220   1.802  17.150
   338G11  C0CG22310   7.215   1.739  17.276
   338G11  C0CF22311   7.105   1.651  17.312
   338G11  H01322312   7.029   1.625  17.240
   338G11  O00G22313   7.085   1.606  17.439
   338G11  C0AA22314   7.169   1.666  17.533
   338G11  C0A922315   7.134   1.630  17.660
   338G11  H00U22316   7.049   1.564  17.670
   338G11  C0A822317   7.215   1.672  17.762
   338G11  H00V22318   7.185   1.644  17.862
   338G11  C0A722319   7.338   1.746  17.745
   338G11  C0A622320   7.378   1.772  17.604
   338G11  C0A522321   7.503   1.829  17.557
   338G11  C0A422322   7.618   1.840  17.649
   338G11  C0A322323   7.643   1.832  17.793
   338G11  C0A222324   7.540   1.835  17.885
   338G11  C0A122325   7.564   1.865  18.024
   338G11  C0A022326   7.678   1.929  18.102
   338G11  C09Z22327   7.649   1.940  18.233
   338G11  C09Y22328   7.727   2.018  18.320
   338G11  H00Y22329   7.706   2.031  18.425
   338G11  C09X22330   7.840   2.086  18.270
   338G11  C09W22331   7.911   2.171  18.356
   338G11  H00R22332   7.876   2.188  18.457
   338G11  C0AX22333   8.030   2.234  18.317
   338G11  H00S22334   8.074   2.299  18.391
   338G11  C0AW22335   8.069   2.215  18.184
   338G11  H00T22336   8.155   2.268  18.147
   338G11  C0AN22337   8.001   2.132  18.092
   338G11  C0AO22338   8.049   2.109  17.959
   338G11  C0AM22339   7.882   2.060  18.137
   338G11  C0B222340   7.541   1.882  18.308
   338G11  O00D22341   7.528   1.878  18.432
   338G11  C0B122342   7.440   1.824  18.232
   338G11  H00W22343   7.347   1.796  18.279
   338G11  C0AL22344   7.802   1.985  18.049
   338G11  C0AK22345   7.855   1.955  17.918
   338G11  C0B022346   7.448   1.823  18.093
   338G11  C0AZ22347   7.352   1.761  17.998
   338G11  H00X22348   7.255   1.721  18.024
   338G11  C0AJ22349   7.774   1.890  17.812
   338G11  C0AH22350   7.739   1.857  17.586
   338G11  C0AE22351   7.525   1.854  17.419
   338G11  C0AD22352   7.422   1.835  17.328
   338G11  C0AY22353   7.407   1.785  17.866
   338G11  C0AB22354   7.288   1.736  17.505
   338G11  C0AC22355   7.311   1.769  17.368
   338G11  C0BM22356   7.326   1.878  17.113
   338G11  C0CM22357   6.983   1.917  16.881
   338G11  C09M22358   6.983   1.967  16.745
   338G11  C09822359   6.858   1.982  16.677
   338G11  C08R22360   6.818   1.986  16.538
   338G11  C08Q22361   6.683   1.977  16.501
   338G11  C08P22362   6.602   1.919  16.395
   338G11  C08Y22363   6.475   1.873  16.438
   338G11  C09722364   6.440   1.861  16.576
   338G11  C09622365   6.374   1.736  16.598
   338G11  C09022366   6.329   1.699  16.467
   338G11  C09522367   6.254   1.582  16.435
   338G11  C09422368   6.208   1.552  16.304
   338G11  C08J22369   6.235   1.610  16.178
   338G11  C08I22370   6.213   1.511  16.078
   338G11  C08H22371   6.283   1.556  15.960
   338G11  C08G22372   6.384   1.651  16.006
   338G11  C08F22373   6.485   1.736  15.944
   338G11  C08E22374   6.501   1.747  15.804
   338G11  C05922375   6.408   1.704  15.702
   338G11  C05822376   6.434   1.728  15.565
   338G11  C05722377   6.368   1.670  15.459
   338G11  C05622378   6.254   1.601  15.494
   338G11  C05522379   6.192   1.618  15.618
   338G11  C05422380   6.098   1.509  15.631
   338G11  C05322381   6.109   1.421  15.512
   338G11  C05222382   6.048   1.293  15.489
   338G11  C05122383   5.978   1.225  15.590
   338G11  C05U22384   5.974   1.265  15.735
   338G11  C05T22385   6.030   1.370  15.812
   338G11  C06K22386   5.962   1.368  15.938
   338G11  H00J22387   5.973   1.440  16.018
   338G11  C06L22388   5.858   1.267  15.945
   338G11  H00I22389   5.793   1.245  16.028
   338G11  C05V22390   5.874   1.203  15.814
   338G11  C06J22391   5.795   1.092  15.777
   338G11  H00K22392   5.725   1.054  15.850
   338G11  C05X22393   5.818   1.038  15.652
   338G11  C06I22394   5.759   0.923  15.602
   338G11  H00L22395   5.686   0.871  15.661
   338G11  C04Z22396   5.797   0.855  15.489
   338G11  C06H22397   5.746   0.722  15.463
   338G11  H00H22398   5.670   0.683  15.529
   338G11  C04Y22399   5.783   0.652  15.341
   338G11  C06G22400   5.726   0.526  15.308
   338G11  O00922401   5.638   0.472  15.373
   338G11  O00822402   5.773   0.458  15.193
   338G11  C04P22403   5.851   0.519  15.103
   338G11  C04J22404   5.904   0.455  14.981
   338G11  C04Q22405   5.876   0.326  14.933
   338G11  H00E22406   5.805   0.274  14.996
   338G11  C04M22407   5.927   0.264  14.813
   338G11  C04R22408   5.900   0.133  14.759
   338G11  H00F22409   5.833   0.063  14.807
   338G11  C04S22410   5.963   0.102  14.643
   338G11  H00G22411   5.933   0.006  14.602
   338G11  O00722412   6.057   0.175  14.577
   338G11  C03V22413   6.072   0.298  14.627
   338G11  C03U22414   6.160   0.381  14.554
   338G11  O00622415   6.214   0.320  14.447
   338G11  C03F22416   6.316   0.384  14.382
   338G11  C03E22417   6.354   0.515  14.412
   338G11  C03D22418   6.290   0.584  14.516
   338G11  C03C22419   6.334   0.705  14.569
   338G11  C03B22420   6.440   0.762  14.492
   338G11  C03A22421   6.497   0.887  14.528
   338G11  C03922422   6.433   0.960  14.634
   338G11  C03822423   6.515   1.083  14.637
   338G11  C03722424   6.607   1.074  14.530
   338G11  C03622425   6.695   1.172  14.493
   338G11  C02R22426   6.790   1.172  14.395
   338G11  C03522427   6.866   1.288  14.426
   338G11  C03R22428   6.815   1.354  14.537
   338G11  C03S22429   6.883   1.436  14.630
   338G11  C04922430   6.822   1.471  14.748
   338G11  C04822431   6.703   1.402  14.780
   338G11  C03P22432   6.637   1.302  14.694
   338G11  C04722433   6.645   1.468  14.892
   338G11  C04622434   6.518   1.433  14.940
   338G11  C04522435   6.426   1.329  14.909
   338G11  C03T22436   6.427   1.224  14.814
   338G11  C04422437   6.317   1.132  14.842
   338G11  C04322438   6.244   1.200  14.938
   338G11  C04222439   6.169   1.107  15.006
   338G11  C04122440   6.186   0.978  14.929
   338G11  C04022441   6.130   0.854  14.963
   338G11  C03Z22442   6.129   0.741  14.878
   338G11  C04H22443   6.035   0.655  14.943
   338G11  C04G22444   5.984   0.714  15.057
   338G11  C03N22445   6.181   0.692  14.756
   338G11  C03Y22446   6.144   0.564  14.713
   338G11  C03X22447   6.053   0.478  14.786
   338G11  C04F22448   6.046   0.835  15.079
   338G11  C04E22449   6.007   0.913  15.186
   338G11  C04O22450   5.921   0.848  15.282
   338G11  C04D22451   6.041   1.049  15.219
   338G11  C04V22452   6.017   1.097  15.350
   338G11  C04W22453   5.926   1.039  15.438
   338G11  C04C22454   6.121   1.139  15.145
   338G11  C04L22455   6.126   1.255  15.235
   338G11  C04U22456   6.217   1.363  15.209
   338G11  C05Q22457   6.245   1.461  15.303
   338G11  C05P22458   6.342   1.545  15.253
   338G11  C04T22459   6.385   1.496  15.133
   338G11  C04B22460   6.297   1.389  15.099
   338G11  C03M22461   6.268   0.998  14.812
   338G11  C04A22462   6.320   1.305  14.988
   338G11  C05H22463   6.500   1.518  15.055
   338G11  C05G22464   6.612   1.600  15.077
   338G11  C05F22465   6.623   1.701  15.181
   338G11  C05E22466   6.754   1.745  15.223
   338G11  C05L22467   6.891   1.753  15.175
   338G11  C05K22468   6.924   1.701  15.040
   338G11  C05J22469   6.843   1.622  14.951
   338G11  C06622470   7.063   1.722  15.006
   338G11  C06522471   7.150   1.800  15.089
   338G11  C06422472   7.109   1.844  15.213
   338G11  C06N22473   7.281   1.823  15.053
   338G11  C06922474   7.330   1.771  14.930
   338G11  C06P22475   7.467   1.790  14.897
   338G11  C06R22476   7.522   1.729  14.783
   338G11  C06B22477   7.437   1.647  14.700
   338G11  C06S22478   7.493   1.579  14.599
   338G11  C02G22479   7.416   1.492  14.530
   338G11  C02F22480   7.480   1.409  14.434
   338G11  C02722481   7.614   1.415  14.412
   338G11  C02622482   7.673   1.331  14.323
   338G11  C00E22483   7.809   1.330  14.301
   338G11  C00D22484   7.863   1.244  14.212
   338G11  C00C22485   7.998   1.250  14.194
   338G11  C00B22486   8.085   1.332  14.264
   338G11  C01522487   8.027   1.424  14.354
   338G11  C07F22488   8.107   1.523  14.412
   338G11  C07E22489   8.046   1.612  14.499
   338G11  C06W22490   7.911   1.597  14.523
   338G11  C06V22491   7.830   1.510  14.456
   338G11  C06X22492   7.847   1.684  14.619
   338G11  C07B22493   7.928   1.764  14.697
   338G11  C07C22494   8.059   1.772  14.676
   338G11  C0FU22495   8.144   1.846  14.756
   338G11  C0F722496   8.280   1.857  14.728
   338G11  C0F622497   8.358   1.937  14.814
   338G11  C0F822498   8.491   1.956  14.777
   338G11  C0F922499   8.570   2.044  14.847
   338G11  C0FA22500   8.689   2.089  14.790
   338G11  C0FZ22501   8.734   2.033  14.671
   338G11  C0G022502   8.857   2.073  14.620
   338G11  C0GD22503   8.931   2.175  14.681
   338G11  C0FC22504   8.884   2.233  14.802
   338G11  C0GH22505   8.960   2.331  14.866
   338G11  C0EY22506   8.919   2.371  14.993
   338G11  C0EX22507   8.997   2.461  15.070
   338G11  C0EW22508   8.954   2.498  15.197
   338G11  C0FR22509   9.044   2.568  15.286
   338G11  H01D22510   9.026   2.587  15.390
   338G11  C0FS22511   9.163   2.615  15.236
   338G11  H01C22512   9.233   2.665  15.302
   338G11  C0GJ22513   9.191   2.592  15.101
   338G11  H01N22514   9.280   2.640  15.066
   338G11  C0EV22515   8.825   2.472  15.244
   338G11  C0FT22516   8.766   2.546  15.356
   338G11  H01E22517   8.814   2.624  15.414
   338G11  C0EU22518   8.753   2.375  15.169
   338G11  C0ET22519   8.630   2.335  15.216
   338G11  C0EI22520   8.546   2.252  15.152
   338G11  C0F122521   8.600   2.190  15.035
   338G11  C0F022522   8.724   2.226  14.981
   338G11  C0EH22523   8.416   2.220  15.202
   338G11  C0EG22524   8.370   2.273  15.329
   338G11  C0EJ22525   8.335   2.136  15.120
   338G11  C0F322526   8.391   2.074  15.009
   338G11  C0EK22527   8.201   2.123  15.156
   338G11  C0EL22528   8.150   2.176  15.276
   338G11  C0EM22529   8.002   2.157  15.286
   338G11  C0EN22530   7.931   2.110  15.184
   338G11  C07I22531   7.802   2.078  15.219
   338G11  C07422532   7.711   2.012  15.136
   338G11  C07322533   7.578   1.998  15.178
   338G11  C07222534   7.495   1.925  15.095
   338G11  C07522535   7.767   1.959  15.026
   338G11  C07622536   7.903   1.970  14.999
   338G11  C07822537   7.956   1.905  14.892
   338G11  C07G22538   7.684   1.881  14.952
   338G11  C07022539   7.740   1.812  14.841
   338G11  C07Z22540   7.775   2.120  15.345
   338G11  C07722541   7.990   2.047  15.076
   338G11  C0EO22542   8.124   2.056  15.064
   338G11  C0F422543   8.174   1.989  14.954
   338G11  C0EQ22544   8.577   2.403  15.330
   338G11  C0FQ22545   9.117   2.512  15.016
   338G11  C0GI22546   9.151   2.474  14.885
   338G11  H01L22547   9.238   2.513  14.835
   338G11  C0EZ22548   8.798   2.324  15.044
   338G11  C0GG22549   9.076   2.382  14.809
   338G11  C0GF22550   9.114   2.328  14.684
   338G11  H01M22551   9.199   2.374  14.637
   338G11  C0GE22552   9.047   2.220  14.621
   338G11  H01K22553   9.077   2.180  14.526
   338G11  O00J22554   8.908   2.017  14.506
   338G11  C0GA22555   8.841   1.918  14.443
   338G11  C0G922556   8.901   1.851  14.339
   338G11  H01H22557   9.003   1.879  14.316
   338G11  C0G822558   8.837   1.734  14.281
   338G11  C0G722559   8.896   1.654  14.172
   338G11  H01I22560   8.980   1.692  14.117
   338G11  O00I22561   8.834   1.538  14.123
   338G11  C0G622562   8.696   1.529  14.148
   338G11  H01J22563   8.646   1.458  14.083
   338G11  C02D22564   8.637   1.594  14.259
   338G11  C02C22565   8.503   1.570  14.294
   338G11  C01722566   8.428   1.458  14.243
   338G11  C01622567   8.297   1.441  14.290
   338G11  O00122568   8.488   1.358  14.163
   338G11  C01822569   8.416   1.258  14.101
   338G11  C00922570   8.279   1.251  14.122
   338G11  C00822571   8.179   1.167  14.055
   338G11  C00722572   8.179   1.061  13.955
   338G11  C00622573   8.295   1.007  13.904
   338G11  C00522574   8.298   0.900  13.809
   338G11  C00422575   8.192   0.808  13.759
   338G11  C00322576   8.047   0.798  13.788
   338G11  C00222577   7.961   0.702  13.720
   338G11  C00P22578   7.822   0.689  13.758
   338G11  C00O22579   7.738   0.589  13.709
   338G11  C00N22580   7.606   0.584  13.729
   338G11  C01022581   7.526   0.481  13.681
   338G11  C01122582   7.385   0.473  13.707
   338G11  C01Q22583   7.310   0.373  13.644
   338G11  C01U22584   7.369   0.270  13.567
   338G11  C01222585   7.509   0.280  13.547
   338G11  H00022586   7.558   0.194  13.504
   338G11  C01V22587   7.278   0.177  13.518
   338G11  H00722588   7.327   0.102  13.458
   338G11  O00522589   7.145   0.161  13.544
   338G11  C01W22590   7.090   0.268  13.615
   338G11  C03122591   6.949   0.263  13.633
   338G11  C03222592   6.887   0.374  13.696
   338G11  H00A22593   6.781   0.385  13.714
   338G11  C03322594   6.965   0.478  13.747
   338G11  H00B22595   6.910   0.559  13.792
   338G11  C01O22596   7.105   0.477  13.745
   338G11  C01N22597   7.181   0.565  13.815
   338G11  C01M22598   7.124   0.672  13.905
   338G11  C01L22599   7.001   0.711  13.992
   338G11  C01K22600   7.034   0.837  14.045
   338G11  C01Y22601   6.967   0.910  14.138
   338G11  C02I22602   6.846   0.862  14.189
   338G11  C02N22603   6.783   0.943  14.286
   338G11  C02M22604   6.667   0.886  14.346
   338G11  C02L22605   6.618   0.760  14.316
   338G11  C02K22606   6.683   0.683  14.217
   338G11  C02U22607   6.636   0.550  14.183
   338G11  C02V22608   6.526   0.496  14.245
   338G11  C03H22609   6.472   0.370  14.211
   338G11  H00C22610   6.503   0.316  14.123
   338G11  C02W22611   6.715   0.462  14.116
   338G11  C02X22612   6.829   0.519  14.060
   338G11  C02Y22613   6.913   0.410  14.031
   338G11  H00822614   7.013   0.412  13.991
   338G11  C02Z22615   6.838   0.287  14.054
   338G11  O00422616   6.867   0.174  14.034
   338G11  O00322617   6.719   0.326  14.117
   338G11  C02J22618   6.803   0.730  14.153
   338G11  C01Z22619   7.034   1.027  14.178
   338G11  C02022620   7.167   1.050  14.152
   338G11  C01I22621   7.228   0.977  14.057
   338G11  C01H22622   7.361   0.977  14.028
   338G11  C00K22623   7.423   0.884  13.947
   338G11  C01S22624   7.351   0.779  13.893
   338G11  C01422625   7.405   0.677  13.824
   338G11  C00J22626   7.560   0.883  13.926
   338G11  C00I22627   7.635   0.979  13.989
   338G11  C00H22628   7.574   1.071  14.078
   338G11  C00G22629   7.647   1.165  14.148
   338G11  C00S22630   7.768   0.977  13.978
   338G11  C00T22631   7.839   1.063  14.055
   338G11  C00U22632   7.973   1.064  14.044
   338G11  C00R22633   7.835   0.882  13.898
   338G11  C00L22634   7.618   0.781  13.853
   338G11  C02822635   7.439   1.067  14.100
   338G11  C02322636   7.378   1.160  14.189
   338G11  C02422637   7.455   1.253  14.254
   338G11  C02122638   7.244   1.144  14.212
   338G11  C02222639   7.184   1.225  14.304
   338G11  C02H22640   7.261   1.319  14.376
   338G11  C03022641   7.205   1.397  14.473
   338G11  C03422642   7.068   1.393  14.489
   338G11  C02P22643   7.045   1.217  14.320
   338G11  C02B22644   6.970   1.105  14.269
   338G11  C01J22645   7.158   0.869  14.002
   338G11  C01X22646   6.879   0.652  14.055
   338G11  C01T22647   7.211   0.777  13.916
   338G11  H00922648   6.894   0.176  13.600
   338G11  C01P22649   7.171   0.376  13.669
   338G11  C01R22650   7.321   0.570  13.788
   338G11  C00Z22651   7.587   0.380  13.601
   338G11  O00022652   7.718   0.390  13.567
   338G11  C00M22653   7.544   0.680  13.801
   338G11  C00Y22654   7.795   0.497  13.618
   338G11  C01322655   7.928   0.504  13.590
   338G11  H00122656   7.972   0.431  13.525
   338G11  C00Q22657   7.756   0.789  13.831
   338G11  C00122658   8.013   0.607  13.634
   338G11  C00022659   8.151   0.606  13.610
   338G11  H00622660   8.184   0.527  13.545
   338G11  C00W22661   7.977   0.885  13.877
   338G11  C01G22662   8.232   0.708  13.664
   338G11  H00522663   8.333   0.703  13.627
   338G11  C01C22664   8.445   0.890  13.780
   338G11  H00222665   8.490   0.821  13.711
   338G11  C01B22666   8.514   0.983  13.858
   338G11  C01D22667   8.655   1.010  13.844
   338G11  H00322668   8.727   0.948  13.793
   338G11  C01E22669   8.687   1.123  13.904
   338G11  H00422670   8.793   1.145  13.908
   338G11  O00222671   8.611   1.200  13.991
   338G11  C01A22672   8.425   1.061  13.932
   338G11  C00V22673   8.050   0.995  13.951
   338G11  C01922674   8.479   1.170  14.008
   338G11  C02E22675   8.451   1.645  14.399
   338G11  C0FX22676   8.518   1.746  14.470
   338G11  C0FW22677   8.462   1.817  14.577
   338G11  C0GB22678   8.652   1.770  14.430
   338G11  C0G322679   8.320   1.628  14.437
   338G11  C07H22680   8.260   1.706  14.541
   338G11  C0GC22681   8.707   1.702  14.320
   338G11  C0G222682   8.718   1.871  14.490
   338G11  C0G122683   8.665   1.937  14.601
   338G11  C0FB22684   8.765   2.184  14.856
   338G11  C0F222685   8.522   2.100  14.968
   338G11  C0FY22686   8.541   1.900  14.656
   338G11  C0F522687   8.308   1.994  14.928
   338G11  C0FV22688   8.335   1.793  14.616
   338G11  C07922689   8.093   1.912  14.869
   338G11  C07A22690   7.875   1.829  14.806
   338G11  C06Y22691   7.712   1.669  14.651
   338G11  C07D22692   8.120   1.698  14.572
   338G11  C01F22693   8.243   1.530  14.383
   338G11  C00A22694   8.219   1.340  14.224
   338G11  C00X22695   8.050   1.166  14.099
   338G11  C00F22696   7.785   1.154  14.139
   338G11  C02922697   7.887   1.419  14.371
   338G11  C02522698   7.590   1.252  14.239
   338G11  C06U22699   7.691   1.507  14.477
   338G11  C02A22700   7.396   1.328  14.352
   338G11  C05Y22701   7.283   1.486  14.548
   338G11  C05Z22702   7.222   1.556  14.653
   338G11  C06022703   7.090   1.539  14.684
   338G11  C06222704   7.034   1.595  14.798
   338G11  C06T22705   7.629   1.588  14.574
   338G11  C06A22706   7.303   1.636  14.732
   338G11  C06Z22707   7.661   1.734  14.761
   338G11  C06Q22708   7.548   1.864  14.980
   338G11  C06822709   7.252   1.696  14.849
   338G11  C06722710   7.112   1.671  14.885
   338G11  C06322711   6.977   1.822  15.260
   338G11  C06C22712   6.945   1.861  15.387
   338G11  C06D22713   6.819   1.843  15.441
   338G11  C06E22714   6.778   1.857  15.572
   338G11  C07Q22715   6.871   1.893  15.661
   338G11  C07P22716   6.999   1.929  15.612
   338G11  C07T22717   7.092   1.986  15.699
   338G11  C07U22718   7.217   2.027  15.653
   338G11  C07V22719   7.315   2.076  15.739
   338G11  C08422720   7.284   2.088  15.878
   338G11  C08C22721   7.155   2.052  15.919
   338G11  C08B22722   7.128   2.056  16.056
   338G11  C08A22723   7.003   2.014  16.095
   338G11  C08922724   6.904   1.964  16.014
   338G11  C08822725   6.787   1.911  16.073
   338G11  C08722726   6.691   1.855  15.985
   338G11  C08622727   6.720   1.852  15.848
   338G11  C08X22728   6.759   1.919  16.208
   338G11  C08T22729   6.869   1.953  16.297
   338G11  C08D22730   6.934   1.956  15.879
   338G11  C08U22731   6.976   1.998  16.232
   338G11  C08V22732   7.081   2.025  16.324
   338G11  C0CY22733   7.204   2.077  16.282
   338G11  C0CX22734   7.297   2.107  16.381
   338G11  C0CW22735   7.422   2.155  16.332
   338G11  C0CV22736   7.446   2.179  16.198
   338G11  C0D422737   7.351   2.136  16.107
   338G11  C0CU22738   7.569   2.224  16.157
   338G11  C0CT22739   7.671   2.259  16.245
   338G11  C0CS22740   7.648   2.228  16.379
   338G11  C0D622741   7.589   2.224  16.018
   338G11  C0EC22742   7.500   2.182  15.925
   338G11  C07X22743   7.530   2.171  15.789
   338G11  C0DL22744   7.712   2.269  15.972
   338G11  C0DK22745   7.743   2.254  15.842
   338G11  C0DN22746   7.879   2.267  15.843
   338G11  C0D822747   7.821   2.291  16.055
   338G11  C08W22748   7.047   2.006  16.455
   338G11  C0CQ22749   7.146   2.030  16.560
   338G11  C09322750   7.227   2.095  16.147
   338G11  C09222751   7.377   2.138  15.967
   338G11  C08522752   7.060   1.990  15.836
   338G11  C07S22753   6.841   1.900  15.797
   338G11  C06F22754   6.653   1.817  15.622
   338G11  C07O22755   7.033   1.912  15.478
   338G11  C07N22756   7.163   1.947  15.433
   338G11  C05D22757   6.724   1.800  15.355
   338G11  C05C22758   6.595   1.779  15.399
   338G11  C05N22759   6.532   1.709  15.295
   338G11  C05M22760   6.707   1.568  14.975
   338G11  C05I22761   6.895   1.564  14.833
   338G11  C06122762   7.015   1.456  14.604
   338G11  C02Q22763   6.995   1.304  14.406
   338G11  C02O22764   6.840   1.067  14.314
   338G11  C03Q22765   6.703   1.279  14.574
   338G11  C03O22766   6.524   1.207  14.718
   338G11  C03L22767   6.324   0.907  14.712
   338G11  C02S22768   6.596   0.954  14.453
   338G11  C02T22769   6.509   0.698  14.388
   338G11  C03K22770   6.277   0.769  14.684
   338G11  C03I22771   6.463   0.571  14.349
   338G11  C03G22772   6.375   0.310  14.284
   338G11  H00D22773   6.355   0.204  14.278
   338G11  C03J22774   6.196   0.516  14.591
   338G11  C03W22775   6.010   0.350  14.743
   338G11  C04I22776   5.999   0.522  14.907
   338G11  C04K22777   5.898   0.644  15.130
   338G11  C04N22778   5.871   0.717  15.248
   338G11  C04X22779   5.890   0.912  15.407
   338G11  C05022780   5.908   1.105  15.564
   338G11  C05W22781   6.061   1.229  15.362
   338G11  C05S22782   6.120   1.468  15.766
   338G11  C05R22783   6.199   1.492  15.432
   338G11  C05O22784   6.410   1.647  15.326
   338G11  C05B22785   6.556   1.779  15.532
   338G11  C05A22786   6.282   1.635  15.723
   338G11  C07R22787   6.623   1.804  15.758
   338G11  C08N22788   6.575   1.800  16.036
   338G11  C08M22789   6.543   1.819  16.175
   338G11  C08L22790   6.430   1.754  16.230
   338G11  C09122791   6.237   1.546  15.824
   338G11  C09K22792   6.219   1.384  16.145
   338G11  H00M22793   6.233   1.286  16.100
   338G11  C08K22794   6.356   1.675  16.140
   338G11  C09J22795   6.208   1.412  16.288
   338G11  C09I22796   6.236   1.355  16.416
   338G11  C09L22797   6.239   1.216  16.463
   338G11  H00N22798   6.214   1.134  16.398
   338G11  C09Q22799   6.243   1.208  16.596
   338G11  H00O22800   6.237   1.105  16.630
   338G11  O00B22801   6.275   1.309  16.688
   338G11  C09G22802   6.302   1.431  16.638
   338G11  C09F22803   6.351   1.522  16.742
   338G11  O00A22804   6.368   1.463  16.865
   338G11  C09P22805   6.393   1.545  16.966
   338G11  H00P22806   6.321   1.552  17.046
   338G11  C09O22807   6.473   1.660  16.953
   338G11  C09D22808   6.473   1.717  16.823
   338G11  C09C22809   6.551   1.833  16.776
   338G11  C09N22810   6.673   1.891  16.824
   338G11  C09T22811   6.743   1.830  16.926
   338G11  C09S22812   6.669   1.786  17.039
   338G11  C0CP22813   6.743   1.836  17.146
   338G11  C0CN22814   6.863   1.908  17.107
   338G11  C0CO22815   6.934   1.971  17.208
   338G11  H01422816   7.017   2.029  17.172
   338G11  C0CZ22817   6.901   1.935  17.340
   338G11  H01522818   6.960   1.963  17.426
   338G11  C0D022819   6.784   1.860  17.378
   338G11  C0G522820   6.737   1.821  17.509
   338G11  H01F22821   6.796   1.859  17.591
   338G11  C0G422822   6.632   1.743  17.533
   338G11  H01G22823   6.614   1.717  17.637
   338G11  O00H22824   6.555   1.684  17.436
   338G11  C0D222825   6.585   1.726  17.309
   338G11  C09V22826   6.517   1.677  17.196
   338G11  H00Q22827   6.438   1.605  17.211
   338G11  C0D122828   6.701   1.805  17.282
   338G11  C09R22829   6.548   1.708  17.062
   338G11  C09H22830   6.267   1.459  16.503
   338G11  C09E22831   6.388   1.662  16.722
   338G11  C09B22832   6.531   1.904  16.665
   338G11  C08Z22833   6.414   1.767  16.371
   338G11  C08O22834   6.638   1.880  16.264
   338G11  C09A22835   6.630   2.000  16.633
   338G11  C08S22836   6.908   1.970  16.436
   338G11  C09922837   6.727   1.988  16.736
   338G11  C09U22838   6.871   1.887  16.967
   338G11  C0BO22839   7.334   1.940  16.989
   338G11  C0CL22840   7.117   1.999  16.693
   338G11  C0D322841   7.269   2.079  16.515
   338G11  C0D522842   7.525   2.168  16.423
   338G11  C0BR22843   7.460   2.058  16.824
   338G11  C0BQ22844   7.448   2.000  16.946
   338G11  C0BL22845   7.436   1.887  17.198
   338G11  C0AF22846   7.647   1.899  17.372
   338G11  C0BH22847   7.787   2.071  17.084
   338G11  C0BG22848   7.895   2.147  17.053
   338G11  C0BD22849   8.000   2.095  17.266
   338G11  C0AG22850   7.756   1.901  17.452
   338G11  C0AI22851   7.838   1.884  17.686
   338G11  C0AV22852   7.980   2.013  17.879
   338G11  C0BB22853   8.191   2.055  17.580
   338G11  O00C22854   8.158   2.188  17.909
   338G11  C0BC22855   8.284   2.151  17.572
   338G11  C0B922856   8.106   2.106  17.354
   338G11  O00E22857   8.281   2.382  17.198
   338G11  C0CA22858   8.289   2.458  17.088
   338G11  O00F22859   8.379   2.537  17.076
   338G11  C0BF22860   7.999   2.163  17.140
   338G11  C0C522861   8.209   2.409  16.980
   338G11  C0C422862   8.231   2.461  16.847
   338G11  H01122863   8.312   2.530  16.824
   338G11  C0C822864   7.912   2.200  16.927
   338G11  C0C222865   8.141   2.419  16.748
   338G11  C0C322866   8.159   2.440  16.606
   338G11  C0DY22867   8.272   2.498  16.542
   338G11  H01622868   8.368   2.526  16.584
   338G11  C0DX22869   8.246   2.487  16.399
   338G11  C0DW22870   8.359   2.501  16.314
   338G11  C0BY22871   7.826   2.229  16.706
   338G11  C0DB22872   8.071   2.400  16.506
   338G11  C0CC22873   7.751   2.247  16.473
   338G11  C0D722874   7.801   2.297  16.202
   338G11  C0DZ22875   8.116   2.424  16.374
   338G11  C0DM22876   7.935   2.292  15.972
   338G11  C0DQ22877   8.247   2.417  16.093
   338G11  C0DV22878   8.348   2.470  16.176
   338G11  C0E022879   8.494   2.546  16.340
   338G11  C0FO22880   8.698   2.714  16.098
   338G11  C0E322881   8.528   2.672  16.403
   338G11  H01722882   8.465   2.736  16.463
   338G11  C0GV22883   8.730   2.841  16.149
   338G11  C0ES22884   8.654   2.698  15.959
   338G11  C0GQ22885   8.706   3.051  15.847
   338G11  C0FJ22886   8.615   2.919  15.522
   338G11  C0ED22887   8.564   2.687  15.682
   338G11  C0ER22888   8.642   2.503  15.399
   338G11  C0EP22889   8.460   2.369  15.394
   338G11  C0E622890   8.418   2.489  15.759
   338G11  C0DE22891   8.167   2.300  15.752
   338G11  C0EA22892   8.242   2.234  15.375
   338G11  C0DF22893   8.073   2.209  15.701
   338G11  C08022894   7.903   2.177  15.387
   338G11  C0DO22895   7.934   2.230  15.723
   338G11  C0DJ22896   7.655   2.211  15.744
   338G11  C07K22897   7.640   2.093  15.391
   338G11  C07W22898   7.439   2.122  15.698
   338G11  C08322899   7.254   2.013  15.517
   338G11  C07J22900   7.546   2.034  15.302
   338G11  C06O22901   7.366   1.900  15.131
   338G11  C06M22902   7.198   1.912  15.299
   348G11  C07122903   9.050   4.757  14.818
   348G11  C07L22904   9.043   4.615  14.831
   348G11  C07M22905   8.918   4.552  14.831
   348G11  C07Y22906   8.902   4.413  14.837
   348G11  C08122907   9.014   4.329  14.843
   348G11  C08222908   8.995   4.187  14.840
   348G11  C0DI22909   9.088   4.079  14.823
   348G11  C0DH22910   9.229   4.069  14.838
   348G11  C0DG22911   9.276   3.942  14.783
   348G11  C0E922912   9.383   3.856  14.825
   348G11  C0E822913   9.321   3.721  14.837
   348G11  C0E722914   9.382   3.599  14.884
   348G11  C0EB22915   9.527   3.592  14.900
   348G11  C0EF22916   9.607   3.486  14.952
   348G11  C0EE22917   9.587   3.390  15.056
   348G11  C0FD22918   9.691   3.367  15.155
   348G11  C0FE22919   9.811   3.442  15.176
   348G11  H01B22920   9.838   3.525  15.113
   348G11  C0FF22921   9.904   3.422  15.274
   348G11  H01A22922   9.991   3.485  15.286
   348G11  C0FG22923   9.872   3.317  15.362
   348G11  H01822924   9.941   3.291  15.441
   348G11  C0FH22925   9.753   3.250  15.355
   348G11  C0FI22926   9.710   3.157  15.458
   348G11  H01922927   9.769   3.146  15.547
   348G11  O00K22928   9.591   3.097  15.458
   348G11  C0FL22929   9.508   3.113  15.350
   348G11  C0FK22930   9.543   3.195  15.240
   348G11  C0FM22931   9.448   3.215  15.137
   348G11  C0FN22932   9.342   3.122  15.123
   348G11  C0FP22933   9.310   3.042  15.235
   348G11  C0GO22934   9.191   2.973  15.239
   348G11  C0GN22935   9.128   2.924  15.357
   348G11  C0GR22936   9.214   2.934  15.465
   348G11  C0GS22937   9.170   2.883  15.592
   348G11  H01Q22938   9.239   2.876  15.675
   348G11  C0GT22939   9.038   2.844  15.602
   348G11  H01O22940   9.002   2.824  15.702
   348G11  C0GU22941   8.952   2.850  15.487
   348G11  H01P22942   8.848   2.837  15.510
   348G11  O00L22943   9.351   2.968  15.458
   348G11  C0GM22944   8.995   2.877  15.356
   348G11  C0GL22945   8.928   2.886  15.234
   348G11  H01R22946   8.825   2.854  15.228
   348G11  C0GK22947   8.993   2.922  15.117
   348G11  C0GP22948   8.951   2.956  14.983
   348G11  C0E222949   9.069   2.997  14.904
   348G11  C0E122950   9.030   3.077  14.794
   348G11  C0DU22951   9.063   3.219  14.797
   348G11  C0DT22952   9.177   3.288  14.839
   348G11  C0E422953   9.263   3.242  14.934
   348G11  C0E522954   9.349   3.348  14.964
   348G11  C0DS22955   9.189   3.428  14.843
   348G11  C0DR22956   9.079   3.498  14.798
   348G11  C0DD22957   9.066   3.637  14.798
   348G11  C0DC22958   8.918   3.657  14.792
   348G11  C0DP22959   8.842   3.538  14.765
   348G11  C0DA22960   8.696   3.517  14.750
   348G11  C0D922961   8.580   3.610  14.755
   348G11  C0CR22962   8.445   3.567  14.726
   348G11  C0C022963   8.408   3.437  14.686
   348G11  C0BZ22964   8.290   3.390  14.641
   348G11  C0C122965   8.275   3.260  14.590
   348G11  C0C722966   8.153   3.214  14.554
   348G11  C0C622967   8.133   3.092  14.481
   348G11  C0C922968   8.005   3.045  14.457
   348G11  C0B822969   7.980   2.928  14.383
   348G11  C0B722970   7.852   2.869  14.380
   348G11  C0B622971   7.796   2.761  14.296
   348G11  C0B522972   7.833   2.716  14.164
   348G11  H00Z22973   7.927   2.741  14.117
   348G11  C0B422974   7.714   2.637  14.115
   348G11  H01022975   7.705   2.599  14.015
   348G11  C0B322976   7.609   2.645  14.216
   348G11  C0AP22977   7.469   2.633  14.270
   348G11  C0AQ22978   7.469   2.708  14.390
   348G11  C0AR22979   7.355   2.766  14.447
   348G11  C0AS22980   7.390   2.879  14.518
   348G11  C0AT22981   7.519   2.935  14.535
   348G11  C0BA22982   7.626   2.870  14.479
   348G11  C0AU22983   7.538   3.066  14.575
   348G11  C0BE22984   7.667   3.121  14.577
   348G11  C0BI22985   7.675   3.252  14.614
   348G11  C0BJ22986   7.562   3.325  14.651
   348G11  C0BK22987   7.577   3.458  14.682
   348G11  C0BW22988   7.703   3.518  14.690
   348G11  C0BV22989   7.818   3.444  14.658
   348G11  C0BU22990   7.945   3.499  14.665
   348G11  C0BX22991   8.055   3.420  14.640
   348G11  C0BT22992   7.958   3.629  14.708
   348G11  C0CD22993   8.085   3.681  14.724
   348G11  C0CB22994   8.198   3.601  14.704
   348G11  C0CE22995   8.101   3.809  14.768
   348G11  C0CK22996   7.989   3.896  14.769
   348G11  C0BS22997   7.858   3.844  14.739
   348G11  C0CJ22998   7.746   3.931  14.723
   348G11  C0BP22999   7.618   3.876  14.702
   348G11  C0CI23000   7.503   3.952  14.684
   348G11  C0CH23001   7.383   3.884  14.670
   348G11  H01223002   7.296   3.943  14.648
   348G11  C0BN23003   7.364   3.750  14.698
   348G11  C0CG23004   7.236   3.696  14.705
   348G11  C0CF23005   7.110   3.776  14.717
   348G11  H01323006   7.116   3.883  14.718
   348G11  O00G23007   6.984   3.725  14.732
   348G11  C0AA23008   6.980   3.590  14.717
   348G11  C0A923009   6.851   3.541  14.711
   348G11  H00U23010   6.765   3.602  14.734
   348G11  C0A823011   6.828   3.412  14.673
   348G11  H00V23012   6.726   3.376  14.679
   348G11  C0A723013   6.931   3.322  14.643
   348G11  C0A623014   7.069   3.367  14.656
   348G11  C0A523015   7.183   3.285  14.655
   348G11  C0A423016   7.182   3.149  14.611
   348G11  C0A323017   7.081   3.051  14.569
   348G11  C0A223018   6.945   3.068  14.547
   348G11  C0A123019   6.856   2.970  14.494
   348G11  C0A023020   6.866   2.838  14.432
   348G11  C09Z23021   6.746   2.784  14.388
   348G11  C09Y23022   6.745   2.656  14.320
   348G11  H00Y23023   6.649   2.623  14.284
   348G11  C09X23024   6.863   2.593  14.296
   348G11  C09W23025   6.849   2.475  14.226
   348G11  H00R23026   6.753   2.432  14.200
   348G11  C0AX23027   6.965   2.411  14.181
   348G11  H00S23028   6.955   2.314  14.135
   348G11  C0AW23029   7.089   2.461  14.210
   348G11  H00T23030   7.178   2.406  14.184
   348G11  C0AN23031   7.103   2.582  14.276
   348G11  C0AO23032   7.230   2.636  14.303
   348G11  C0AM23033   6.988   2.655  14.322
   348G11  C0B223034   6.617   2.844  14.398
   348G11  O00D23035   6.508   2.794  14.362
   348G11  C0B123036   6.609   2.978  14.451
   348G11  H00W23037   6.511   3.021  14.465
   348G11  C0AL23038   6.991   2.769  14.404
   348G11  C0AK23039   7.122   2.811  14.445
   348G11  C0B023040   6.731   3.035  14.497
   348G11  C0AZ23041   6.743   3.167  14.549
   348G11  H00X23042   6.654   3.229  14.550
   348G11  C0AJ23043   7.148   2.931  14.520
   348G11  C0AH23044   7.306   3.079  14.608
   348G11  C0AE23045   7.317   3.338  14.673
   348G11  C0AD23046   7.335   3.472  14.690
   348G11  C0AY23047   6.882   3.191  14.587
   348G11  C0AB23048   7.088   3.501  14.692
   348G11  C0AC23049   7.222   3.556  14.698
   348G11  C0BM23050   7.477   3.674  14.706
   348G11  C0CM23051   7.524   4.090  14.663
   348G11  C09M23052   7.654   4.148  14.657
   348G11  C09823053   7.677   4.272  14.593
   348G11  C08R23054   7.775   4.372  14.613
   348G11  C08Q23055   7.768   4.480  14.519
   348G11  C08P23056   7.786   4.623  14.531
   348G11  C08Y23057   7.706   4.704  14.446
   348G11  C09723058   7.590   4.651  14.392
   348G11  C09623059   7.488   4.744  14.398
   348G11  C09023060   7.557   4.874  14.403
   348G11  C09523061   7.491   4.999  14.427
   348G11  C09423062   7.557   5.124  14.457
   348G11  C08J23063   7.698   5.149  14.480
   348G11  C08I23064   7.699   5.261  14.569
   348G11  C08H23065   7.832   5.270  14.631
   348G11  C08G23066   7.879   5.130  14.623
   348G11  C08F23067   7.991   5.056  14.680
   348G11  C08E23068   8.112   5.119  14.726
   348G11  C05923069   8.132   5.262  14.741
   348G11  C05823070   8.264   5.312  14.765
   348G11  C05723071   8.300   5.444  14.764
   348G11  C05623072   8.191   5.538  14.744
   348G11  C05523073   8.059   5.507  14.744
   348G11  C05423074   7.992   5.607  14.671
   348G11  C05323075   8.087   5.702  14.621
   348G11  C05223076   8.069   5.807  14.529
   348G11  C05123077   7.945   5.828  14.456
   348G11  C05U23078   7.825   5.744  14.460
   348G11  C05T23079   7.799   5.610  14.515
   348G11  C06K23080   7.659   5.587  14.485
   348G11  H00J23081   7.599   5.506  14.523
   348G11  C06L23082   7.601   5.697  14.418
   348G11  H00I23083   7.500   5.713  14.384
   348G11  C05V23084   7.707   5.786  14.397
   348G11  C06J23085   7.699   5.905  14.329
   348G11  H00K23086   7.610   5.938  14.277
   348G11  C05X23087   7.813   5.980  14.299
   348G11  C06I23088   7.818   6.088  14.214
   348G11  H00L23089   7.726   6.115  14.165
   348G11  C04Z23090   7.932   6.162  14.180
   348G11  C06H23091   7.928   6.278  14.093
   348G11  H00H23092   7.840   6.322  14.049
   348G11  C04Y23093   8.047   6.347  14.064
   348G11  C06G23094   8.040   6.455  13.962
   348G11  O00923095   7.944   6.476  13.893
   348G11  O00823096   8.158   6.521  13.949
   348G11  C04P23097   8.279   6.483  13.997
   348G11  C04J23098   8.400   6.544  13.957
   348G11  C04Q23099   8.430   6.656  13.874
   348G11  H00E23100   8.339   6.703  13.842
   348G11  C04M23101   8.559   6.703  13.847
   348G11  C04R23102   8.588   6.813  13.769
   348G11  H00F23103   8.507   6.861  13.716
   348G11  C04S23104   8.712   6.869  13.762
   348G11  H00G23105   8.727   6.963  13.712
   348G11  O00723106   8.822   6.801  13.815
   348G11  C03V23107   8.797   6.689  13.891
   348G11  C03U23108   8.905   6.618  13.946
   348G11  O00623109   9.022   6.666  13.912
   348G11  C03F23110   9.136   6.596  13.940
   348G11  C03E23111   9.130   6.479  14.019
   348G11  C03D23112   9.006   6.444  14.071
   348G11  C03C23113   8.993   6.335  14.160
   348G11  C03B23114   9.118   6.280  14.197
   348G11  C03A23115   9.115   6.179  14.289
   348G11  C03923116   9.001   6.128  14.345
   348G11  C03823117   9.045   6.013  14.426
   348G11  C03723118   9.190   6.015  14.414
   348G11  C03623119   9.263   5.930  14.487
   348G11  C02R23120   9.401   5.911  14.473
   348G11  C03523121   9.415   5.791  14.547
   348G11  C03R23122   9.299   5.746  14.612
   348G11  C03S23123   9.273   5.612  14.624
   348G11  C04923124   9.140   5.585  14.646
   348G11  C04823125   9.044   5.688  14.626
   348G11  C03P23126   9.063   5.815  14.572
   348G11  C04723127   8.918   5.647  14.673
   348G11  C04623128   8.800   5.724  14.678
   348G11  C04523129   8.770   5.848  14.622
   348G11  C03T23130   8.845   5.931  14.537
   348G11  C04423131   8.757   6.036  14.492
   348G11  C04323132   8.629   6.008  14.545
   348G11  C04223133   8.529   6.050  14.453
   348G11  C04123134   8.607   6.134  14.366
   348G11  C04023135   8.554   6.207  14.257
   348G11  C03Z23136   8.619   6.314  14.176
   348G11  C04H23137   8.514   6.382  14.102
   348G11  C04G23138   8.395   6.320  14.142
   348G11  C03N23139   8.755   6.363  14.158
   348G11  C03Y23140   8.760   6.465  14.056
   348G11  C03X23141   8.651   6.532  13.995
   348G11  C04F23142   8.409   6.218  14.229
   348G11  C04E23143   8.294   6.156  14.269
   348G11  C04O23144   8.172   6.197  14.213
   348G11  C04D23145   8.287   6.052  14.365
   348G11  C04V23146   8.165   5.989  14.398
   348G11  C04W23147   8.046   6.014  14.328
   348G11  C04C23148   8.388   6.004  14.455
   348G11  C04L23149   8.326   5.904  14.533
   348G11  C04U23150   8.390   5.830  14.637
   348G11  C05Q23151   8.337   5.709  14.684
   348G11  C05P23152   8.442   5.626  14.719
   348G11  C04T23153   8.561   5.688  14.708
   348G11  C04B23154   8.534   5.814  14.652
   348G11  C03M23155   8.751   6.130  14.383
   348G11  C04A23156   8.641   5.887  14.610
   348G11  C05H23157   8.696   5.642  14.728
   348G11  C05G23158   8.754   5.510  14.743
   348G11  C05F23159   8.682   5.403  14.789
   348G11  C05E23160   8.728   5.267  14.773
   348G11  C05L23161   8.849   5.195  14.769
   348G11  C05K23162   8.974   5.259  14.741
   348G11  C05J23163   8.989   5.400  14.709
   348G11  C06623164   9.086   5.172  14.743
   348G11  C06523165   9.075   5.034  14.775
   348G11  C06423166   8.948   4.975  14.794
   348G11  C06N23167   9.188   4.953  14.773
   348G11  C06923168   9.314   5.001  14.746
   348G11  C06P23169   9.430   4.913  14.744
   348G11  C06R23170   9.556   4.965  14.702
   348G11  C06B23171   9.567   5.099  14.671
   348G11  C06S23172   9.687   5.146  14.620
   348G11  C02G23173   9.695   5.277  14.571
   348G11  C02F23174   9.819   5.325  14.519
   348G11  C02723175   9.922   5.236  14.488
   348G11  C02623176  10.035   5.283  14.429
   348G11  C00E23177  10.135   5.193  14.402
   348G11  C00D23178  10.253   5.236  14.344
   348G11  C00C23179  10.341   5.137  14.307
   348G11  C00B23180  10.333   5.000  14.324
   348G11  C01523181  10.222   4.962  14.393
   348G11  C07F23182  10.212   4.826  14.422
   348G11  C07E23183  10.096   4.780  14.486
   348G11  C06W23184   9.999   4.875  14.526
   348G11  C06V23185  10.011   5.011  14.492
   348G11  C06X23186   9.884   4.834  14.592
   348G11  C07B23187   9.875   4.699  14.628
   348G11  C07C23188   9.967   4.606  14.586
   348G11  C0FU23189   9.957   4.470  14.616
   348G11  C0F723190  10.056   4.382  14.580
   348G11  C0F623191  10.031   4.248  14.609
   348G11  C0F823192  10.124   4.160  14.565
   348G11  C0F923193  10.104   4.021  14.594
   348G11  C0FA23194  10.200   3.928  14.552
   348G11  C0FZ23195  10.307   3.968  14.483
   348G11  C0G023196  10.407   3.878  14.438
   348G11  C0GD23197  10.404   3.748  14.474
   348G11  C0FC23198  10.297   3.706  14.552
   348G11  C0GH23199  10.284   3.571  14.586
   348G11  C0EY23200  10.169   3.526  14.649
   348G11  C0EX23201  10.153   3.388  14.677
   348G11  C0EW23202  10.049   3.350  14.757
   348G11  C0FR23203  10.024   3.214  14.784
   348G11  H01D23204   9.936   3.184  14.840
   348G11  C0FS23205  10.113   3.114  14.743
   348G11  H01C23206  10.090   3.010  14.758
   348G11  C0GJ23207  10.228   3.157  14.675
   348G11  H01N23208  10.293   3.076  14.646
   348G11  C0EV23209   9.952   3.442  14.800
   348G11  C0FT23210   9.835   3.406  14.876
   348G11  H01E23211   9.802   3.312  14.917
   348G11  C0EU23212   9.965   3.574  14.759
   348G11  C0ET23213   9.860   3.665  14.781
   348G11  C0EI23214   9.865   3.798  14.756
   348G11  C0F123215   9.983   3.843  14.692
   348G11  C0F023216  10.089   3.757  14.663
   348G11  C0EH23217   9.756   3.881  14.782
   348G11  C0EG23218   9.625   3.826  14.815
   348G11  C0EJ23219   9.774   4.018  14.754
   348G11  C0F323220   9.896   4.065  14.708
   348G11  C0EK23221   9.674   4.108  14.782
   348G11  C0EL23222   9.542   4.056  14.824
   348G11  C0EM23223   9.456   4.169  14.847
   348G11  C0EN23224   9.497   4.301  14.845
   348G11  C07I23225   9.383   4.384  14.847
   348G11  C07423226   9.400   4.519  14.828
   348G11  C07323227   9.285   4.592  14.834
   348G11  C07223228   9.291   4.726  14.800
   348G11  C07523229   9.521   4.563  14.794
   348G11  C07623230   9.627   4.478  14.772
   348G11  C07823231   9.746   4.519  14.719
   348G11  C07G23232   9.530   4.697  14.761
   348G11  C07023233   9.653   4.744  14.718
   348G11  C07Z23234   9.264   4.314  14.869
   348G11  C07723235   9.616   4.344  14.798
   348G11  C0EO23236   9.705   4.245  14.766
   348G11  C0F423237   9.816   4.288  14.704
   348G11  C0EQ23238   9.748   3.620  14.847
   348G11  C0FQ23239  10.251   3.290  14.644
   348G11  C0GI23240  10.362   3.342  14.575
   348G11  H01L23241  10.442   3.278  14.541
   348G11  C0EZ23242  10.073   3.619  14.687
   348G11  C0GG23243  10.381   3.478  14.551
   348G11  C0GF23244  10.491   3.518  14.486
   348G11  H01M23245  10.571   3.451  14.456
   348G11  C0GE23246  10.507   3.650  14.434
   348G11  H01K23247  10.592   3.680  14.375
   348G11  O00J23248  10.511   3.918  14.359
   348G11  C0GA23249  10.525   4.049  14.341
   348G11  C0G923250  10.634   4.083  14.258
   348G11  H01H23251  10.690   4.003  14.211
   348G11  C0G823252  10.653   4.219  14.230
   348G11  C0G723253  10.759   4.263  14.138
   348G11  H01I23254  10.832   4.194  14.098
   348G11  O00I23255  10.773   4.392  14.095
   348G11  C0G623256  10.683   4.481  14.143
   348G11  H01J23257  10.696   4.573  14.089
   348G11  C02D23258  10.583   4.451  14.239
   348G11  C02C23259  10.491   4.547  14.287
   348G11  C01723260  10.509   4.686  14.258
   348G11  C01623261  10.412   4.780  14.298
   348G11  O00123262  10.624   4.737  14.205
   348G11  C01823263  10.631   4.868  14.150
   348G11  C00923264  10.541   4.965  14.198
   348G11  C00823265  10.548   5.105  14.165
   348G11  C00723266  10.623   5.195  14.080
   348G11  C00623267  10.726   5.153  13.993
   348G11  C00523268  10.801   5.246  13.912
   348G11  C00423269  10.772   5.388  13.873
   348G11  C00323270  10.662   5.477  13.908
   348G11  C00223271  10.653   5.604  13.838
   348G11  C00P23272  10.551   5.693  13.877
   348G11  C00O23273  10.528   5.810  13.804
   348G11  C00N23274  10.420   5.896  13.831
   348G11  C01023275  10.392   6.008  13.745
   348G11  C01123276  10.279   6.096  13.766
   348G11  C01Q23277  10.250   6.201  13.677
   348G11  C01U23278  10.331   6.223  13.563
   348G11  C01223279  10.443   6.133  13.544
   348G11  H00023280  10.501   6.151  13.455
   348G11  C01V23281  10.287   6.328  13.476
   348G11  H00723282  10.346   6.348  13.388
   348G11  O00523283  10.183   6.414  13.504
   348G11  C01W23284  10.120   6.400  13.624
   348G11  C03123285  10.033   6.504  13.664
   348G11  C03223286   9.986   6.506  13.796
   348G11  H00A23287   9.927   6.590  13.831
   348G11  C03323288  10.010   6.397  13.878
   348G11  H00B23289   9.969   6.398  13.978
   348G11  C01O23290  10.078   6.276  13.827
   348G11  C01N23291  10.084   6.162  13.902
   348G11  C01M23292   9.987   6.132  14.011
   348G11  C01L23293   9.850   6.150  14.068
   348G11  C01K23294   9.836   6.060  14.174
   348G11  C01Y23295   9.719   6.024  14.244
   348G11  C02I23296   9.601   6.094  14.222
   348G11  C02N23297   9.484   6.058  14.288
   348G11  C02M23298   9.364   6.131  14.259
   348G11  C02L23299   9.367   6.235  14.170
   348G11  C02K23300   9.488   6.273  14.108
   348G11  C02U23301   9.475   6.370  14.006
   348G11  C02V23302   9.360   6.445  13.990
   348G11  C03H23303   9.371   6.570  13.927
   348G11  H00C23304   9.465   6.613  13.893
   348G11  C02W23305   9.588   6.393  13.913
   348G11  C02X23306   9.684   6.300  13.929
   348G11  C02Y23307   9.747   6.307  13.804
   348G11  H00823308   9.832   6.253  13.765
   348G11  C02Z23309   9.685   6.420  13.722
   348G11  O00423310   9.714   6.467  13.617
   348G11  O00323311   9.580   6.459  13.794
   348G11  C02J23312   9.610   6.199  14.125
   348G11  C01Z23313   9.728   5.916  14.323
   348G11  C02023314   9.846   5.840  14.323
   348G11  C01I23315   9.961   5.878  14.261
   348G11  C01H23316  10.065   5.795  14.233
   348G11  C00K23317  10.161   5.823  14.137
   348G11  C01S23318  10.149   5.941  14.064
   348G11  C01423319  10.232   5.969  13.958
   348G11  C00J23320  10.260   5.730  14.108
   348G11  C00I23321  10.273   5.616  14.178
   348G11  C00H23322  10.177   5.585  14.275
   348G11  C00G23323  10.167   5.458  14.327
   348G11  C00S23324  10.377   5.525  14.149
   348G11  C00T23325  10.369   5.409  14.214
   348G11  C00U23326  10.461   5.309  14.178
   348G11  C00R23327  10.473   5.549  14.051
   348G11  C00L23328  10.358   5.762  14.017
   348G11  C02823329  10.068   5.671  14.298
   348G11  C02323330   9.955   5.629  14.374
   348G11  C02423331   9.945   5.497  14.422
   348G11  C02123332   9.844   5.715  14.381
   348G11  C02223333   9.738   5.673  14.449
   348G11  C02H23334   9.730   5.544  14.503
   348G11  C03023335   9.607   5.491  14.556
   348G11  C03423336   9.503   5.574  14.571
   348G11  C02P23337   9.629   5.756  14.460
   348G11  C02B23338   9.620   5.874  14.388
   348G11  C01J23339   9.954   5.995  14.194
   348G11  C01X23340   9.725   6.218  14.037
   348G11  C01T23341  10.038   6.028  14.094
   348G11  H00923342  10.012   6.582  13.593
   348G11  C01P23343  10.148   6.285  13.706
   348G11  C01R23344  10.194   6.072  13.876
   348G11  C00Z23345  10.479   6.029  13.632
   348G11  O00023346  10.591   5.951  13.616
   348G11  C00M23347  10.335   5.876  13.938
   348G11  C00Y23348  10.614   5.843  13.699
   348G11  C01323349  10.723   5.765  13.672
   348G11  H00123350  10.791   5.791  13.592
   348G11  C00Q23351  10.463   5.671  13.983
   348G11  C00123352  10.745   5.641  13.740
   348G11  C00023353  10.859   5.563  13.722
   348G11  H00623354  10.942   5.587  13.657
   348G11  C00W23355  10.565   5.448  14.008
   348G11  C01G23356  10.872   5.445  13.792
   348G11  H00523357  10.963   5.393  13.765
   348G11  C01C23358  10.913   5.162  13.869
   348G11  H00223359  10.995   5.193  13.805
   348G11  C01B23360  10.901   5.027  13.919
   348G11  C01D23361  10.976   4.908  13.892
   348G11  H00323362  11.065   4.914  13.831
   348G11  C01E23363  10.930   4.797  13.955
   348G11  H00423364  10.983   4.704  13.957
   348G11  O00223365  10.815   4.785  14.035
   348G11  C01A23366  10.784   5.019  14.000
   348G11  C00V23367  10.560   5.323  14.077
   348G11  C01923368  10.744   4.899  14.064
   348G11  C02E23369  10.380   4.505  14.358
   348G11  C0FX23370  10.363   4.369  14.388
   348G11  C0FW23371  10.253   4.332  14.459
   348G11  C0GB23372  10.460   4.276  14.353
   348G11  C0G323373  10.286   4.602  14.399
   348G11  C07H23374  10.177   4.559  14.472
   348G11  C0GC23375  10.566   4.318  14.278
   348G11  C0G223376  10.436   4.144  14.387
   348G11  C0G123377  10.328   4.100  14.454
   348G11  C0FB23378  10.198   3.797  14.595
   348G11  C0F223379   9.991   3.977  14.665
   348G11  C0FY23380  10.238   4.198  14.493
   348G11  C0F523381   9.915   4.201  14.672
   348G11  C0FV23382  10.157   4.425  14.499
   348G11  C07923383   9.840   4.425  14.682
   348G11  C07A23384   9.759   4.653  14.695
   348G11  C06Y23385   9.778   4.922  14.622
   348G11  C07D23386  10.080   4.646  14.510
   348G11  C01F23387  10.304   4.734  14.372
   348G11  C00A23388  10.431   4.917  14.274
   348G11  C00X23389  10.454   5.182  14.230
   348G11  C00F23390  10.267   5.368  14.298
   348G11  C02923391  10.122   5.055  14.424
   348G11  C02523392  10.052   5.416  14.400
   348G11  C06U23393   9.908   5.100  14.514
   348G11  C02A23394   9.829   5.452  14.480
   348G11  C05Y23395   9.590   5.358  14.588
   348G11  C05Z23396   9.468   5.314  14.637
   348G11  C06023397   9.358   5.397  14.644
   348G11  C06223398   9.226   5.354  14.682
   348G11  C06T23399   9.794   5.058  14.588
   348G11  C06A23400   9.455   5.184  14.675
   348G11  C06Z23401   9.669   4.877  14.690
   348G11  C06Q23402   9.417   4.779  14.771
   348G11  C06823403   9.328   5.139  14.716
   348G11  C06723404   9.214   5.220  14.713
   348G11  C06323405   8.836   5.054  14.793
   348G11  C06C23406   8.712   4.987  14.793
   348G11  C06D23407   8.596   5.053  14.782
   348G11  C06E23408   8.468   5.005  14.779
   348G11  C07Q23409   8.462   4.869  14.781
   348G11  C07P23410   8.580   4.787  14.785
   348G11  C07T23411   8.561   4.652  14.797
   348G11  C07U23412   8.674   4.572  14.817
   348G11  C07V23413   8.658   4.440  14.825
   348G11  C08423414   8.530   4.383  14.824
   348G11  C08C23415   8.419   4.463  14.814
   348G11  C08B23416   8.288   4.409  14.824
   348G11  C08A23417   8.181   4.497  14.812
   348G11  C08923418   8.196   4.628  14.773
   348G11  C08823419   8.085   4.698  14.741
   348G11  C08723420   8.096   4.836  14.728
   348G11  C08623421   8.220   4.897  14.752
   348G11  C08X23422   7.962   4.633  14.702
   348G11  C08T23423   7.950   4.492  14.746
   348G11  C08D23424   8.325   4.679  14.773
   348G11  C08U23425   8.053   4.442  14.823
   348G11  C08V23426   8.042   4.298  14.838
   348G11  C0CY23427   8.152   4.210  14.832
   348G11  C0CX23428   8.132   4.079  14.814
   348G11  C0CW23429   8.246   3.993  14.815
   348G11  C0CV23430   8.373   4.050  14.816
   348G11  C0D423431   8.390   4.186  14.832
   348G11  C0CU23432   8.483   3.970  14.804
   348G11  C0CT23433   8.469   3.835  14.774
   348G11  C0CS23434   8.342   3.780  14.769
   348G11  C0D623435   8.603   4.030  14.817
   348G11  C0EC23436   8.628   4.167  14.826
   348G11  C07X23437   8.755   4.221  14.836
   348G11  C0DL23438   8.712   3.953  14.809
   348G11  C0DK23439   8.834   4.001  14.830
   348G11  C0DN23440   8.920   3.902  14.811
   348G11  C0D823441   8.713   3.817  14.782
   348G11  C08W23442   7.920   4.259  14.772
   348G11  C0CQ23443   7.896   4.121  14.750
   348G11  C09323444   8.276   4.270  14.834
   348G11  C09223445   8.515   4.245  14.824
   348G11  C08523446   8.435   4.601  14.793
   348G11  C07S23447   8.332   4.819  14.773
   348G11  C06F23448   8.354   5.086  14.770
   348G11  C07O23449   8.701   4.846  14.797
   348G11  C07N23450   8.812   4.769  14.809
   348G11  C05D23451   8.609   5.188  14.779
   348G11  C05C23452   8.497   5.269  14.784
   348G11  C05N23453   8.540   5.399  14.788
   348G11  C05M23454   8.889   5.511  14.711
   348G11  C05I23455   9.115   5.445  14.675
   348G11  C06123456   9.378   5.528  14.613
   348G11  C02Q23457   9.520   5.706  14.526
   348G11  C02O23458   9.506   5.957  14.380
   348G11  C03Q23459   9.201   5.831  14.564
   348G11  C03O23460   8.979   5.911  14.508
   348G11  C03L23461   8.868   6.181  14.310
   348G11  C02S23462   9.232   6.105  14.322
   348G11  C02T23463   9.246   6.305  14.140
   348G11  C03K23464   8.870   6.294  14.212
   348G11  C03I23465   9.244   6.413  14.051
   348G11  C03G23466   9.257   6.645  13.894
   348G11  H00D23467   9.262   6.734  13.833
   348G11  C03J23468   8.890   6.506  14.024
   348G11  C03W23469   8.671   6.639  13.911
   348G11  C04I23470   8.519   6.492  14.013
   348G11  C04K23471   8.282   6.370  14.083
   348G11  C04N23472   8.164   6.307  14.125
   348G11  C04X23473   8.050   6.123  14.240
   348G11  C05023474   7.934   5.942  14.366
   348G11  C05W23475   8.188   5.890  14.493
   348G11  C05S23476   7.889   5.538  14.606
   348G11  C05R23477   8.208   5.663  14.688
   348G11  C05O23478   8.434   5.491  14.761
   348G11  C05B23479   8.364   5.220  14.772
   348G11  C05A23480   8.035   5.373  14.714
   348G11  C07R23481   8.225   5.032  14.755
   348G11  C08N23482   7.991   4.914  14.664
   348G11  C08M23483   7.885   4.839  14.603
   348G11  C08L23484   7.787   4.918  14.528
   348G11  C09123485   7.904   5.392  14.653
   348G11  C09K23486   7.569   5.282  14.617
   348G11  H00M23487   7.539   5.329  14.709
   348G11  C08K23488   7.793   5.060  14.534
   348G11  C09J23489   7.475   5.206  14.534
   348G11  C09I23490   7.348   5.144  14.541
   348G11  C09L23491   7.228   5.201  14.582
   348G11  H00N23492   7.231   5.297  14.632
   348G11  C09Q23493   7.112   5.128  14.558
   348G11  H00O23494   7.014   5.159  14.592
   348G11  O00B23495   7.120   5.000  14.498
   348G11  C09G23496   7.241   4.935  14.463
   348G11  C09F23497   7.232   4.795  14.431
   348G11  O00A23498   7.104   4.752  14.432
   348G11  C09P23499   7.087   4.619  14.400
   348G11  H00P23500   7.007   4.586  14.336
   348G11  C09O23501   7.189   4.525  14.451
   348G11  C09D23502   7.324   4.564  14.425
   348G11  C09C23503   7.440   4.474  14.427
   348G11  C09N23504   7.463   4.338  14.475
   348G11  C09T23505   7.377   4.294  14.583
   348G11  C09S23506   7.238   4.318  14.590
   348G11  C0CP23507   7.198   4.233  14.692
   348G11  C0CN23508   7.292   4.155  14.753
   348G11  C0CO23509   7.257   4.079  14.862
   348G11  H01423510   7.321   4.005  14.907
   348G11  C0CZ23511   7.117   4.081  14.894
   348G11  H01523512   7.084   4.011  14.969
   348G11  C0D023513   7.017   4.153  14.827
   348G11  C0G523514   6.872   4.141  14.850
   348G11  H01F23515   6.829   4.082  14.929
   348G11  C0G423516   6.786   4.210  14.775
   348G11  H01G23517   6.683   4.213  14.807
   348G11  O00H23518   6.824   4.299  14.678
   348G11  C0D223519   6.957   4.307  14.654
   348G11  C09V23520   7.008   4.392  14.556
   348G11  H00Q23521   6.929   4.456  14.518
   348G11  C0D123522   7.060   4.232  14.720
   348G11  C09R23523   7.146   4.404  14.520
   348G11  C09H23524   7.355   5.016  14.472
   348G11  C09E23525   7.348   4.709  14.413
   348G11  C09B23526   7.564   4.521  14.398
   348G11  C08Z23527   7.687   4.839  14.462
   348G11  C08O23528   7.874   4.696  14.615
   348G11  C09A23529   7.669   4.433  14.424
   348G11  C08S23530   7.858   4.378  14.728
   348G11  C09923531   7.607   4.318  14.477
   348G11  C09U23532   7.408   4.174  14.671
   348G11  C0BO23533   7.605   3.734  14.706
   348G11  C0CL23534   7.767   4.072  14.717
   348G11  C0D323535   8.004   4.030  14.786
   348G11  C0D523536   8.231   3.863  14.785
   348G11  C0BR23537   7.846   3.706  14.723
   348G11  C0BQ23538   7.718   3.654  14.712
   348G11  C0BL23539   7.464   3.537  14.696
   348G11  C0AF23540   7.433   3.268  14.652
   348G11  C0BH23541   7.805   3.312  14.619
   348G11  C0BG23542   7.913   3.236  14.575
   348G11  C0BD23543   7.775   3.053  14.514
   348G11  C0AG23544   7.431   3.139  14.620
   348G11  C0AI23545   7.283   2.955  14.555
   348G11  C0AV23546   7.234   2.738  14.401
   348G11  C0BB23547   7.601   2.751  14.410
   348G11  O00C23548   7.346   2.596  14.232
   348G11  C0BC23549   7.681   2.694  14.326
   348G11  C0B923550   7.754   2.927  14.463
   348G11  O00E23551   8.089   2.872  14.318
   348G11  C0CA23552   8.219   2.918  14.332
   348G11  O00F23553   8.310   2.866  14.267
   348G11  C0BF23554   7.897   3.114  14.516
   348G11  C0C523555   8.235   3.028  14.427
   348G11  C0C423556   8.370   3.060  14.468
   348G11  H01123557   8.452   2.997  14.436
   348G11  C0C823558   8.041   3.293  14.586
   348G11  C0C223559   8.384   3.176  14.557
   348G11  C0C323560   8.504   3.220  14.619
   348G11  C0DY23561   8.627   3.156  14.621
   348G11  H01623562   8.660   3.057  14.593
   348G11  C0DX23563   8.719   3.253  14.684
   348G11  C0DW23564   8.833   3.208  14.764
   348G11  C0BY23565   8.180   3.471  14.655
   348G11  C0DB23566   8.518   3.348  14.675
   348G11  C0CC23567   8.332   3.647  14.732
   348G11  C0D723568   8.586   3.750  14.771
   348G11  C0DZ23569   8.652   3.381  14.709
   348G11  C0DM23570   8.849   3.779  14.792
   348G11  C0DQ23571   8.953   3.438  14.770
   348G11  C0DV23572   8.947   3.294  14.774
   348G11  C0E023573   8.886   3.072  14.791
   348G11  C0FO23574   9.168   3.015  14.995
   348G11  C0E323575   8.832   2.995  14.906
   348G11  H01723576   8.731   3.001  14.944
   348G11  C0GV23577   9.124   2.957  15.112
   348G11  C0ES23578   9.264   3.119  15.009
   348G11  C0GQ23579   9.385   3.046  15.352
   348G11  C0FJ23580   9.663   3.271  15.252
   348G11  C0ED23581   9.464   3.323  15.049
   348G11  C0ER23582   9.733   3.496  14.889
   348G11  C0EP23583   9.629   3.683  14.841
   348G11  C0E623584   9.315   3.469  14.893
   348G11  C0DE23585   9.178   3.732  14.802
   348G11  C0EA23586   9.518   3.911  14.824
   348G11  C0DF23587   9.161   3.864  14.758
   348G11  C08023588   9.312   4.177  14.859
   348G11  C0DO23589   9.052   3.944  14.801
   348G11  C0DJ23590   8.866   4.140  14.840
   348G11  C07K23591   9.142   4.392  14.850
   348G11  C07W23592   8.769   4.359  14.835
   348G11  C08323593   8.802   4.631  14.820
   348G11  C07J23594   9.158   4.534  14.842
   348G11  C06O23595   9.176   4.812  14.800
   348G11  C06M23596   8.937   4.834  14.805
   358G11  C07123597  10.482   3.304  12.369
   358G11  C07L23598  10.554   3.270  12.254
   358G11  C07M23599  10.572   3.138  12.215
   358G11  C07Y23600  10.634   3.108  12.087
   358G11  C08123601  10.707   3.205  12.016
   358G11  C08223602  10.768   3.167  11.894
   358G11  C0DI23603  10.841   3.248  11.793
   358G11  C0DH23604  10.865   3.389  11.776
   358G11  C0DG23605  10.965   3.410  11.672
   358G11  C0E923606  10.973   3.517  11.570
   358G11  C0E823607  11.024   3.445  11.456
   358G11  C0E723608  11.113   3.498  11.351
   358G11  C0EB23609  11.149   3.640  11.352
   358G11  C0EF23610  11.271   3.698  11.289
   358G11  C0EE23611  11.388   3.645  11.220
   358G11  C0FD23612  11.512   3.722  11.233
   358G11  C0FE23613  11.541   3.826  11.326
   358G11  H01B23614  11.470   3.867  11.397
   358G11  C0FF23615  11.669   3.886  11.339
   358G11  H01A23616  11.689   3.958  11.417
   358G11  C0FG23617  11.764   3.846  11.249
   358G11  H01823618  11.856   3.902  11.259
   358G11  C0FH23619  11.744   3.751  11.143
   358G11  C0FI23620  11.834   3.704  11.038
   358G11  H01923621  11.926   3.754  11.011
   358G11  O00K23622  11.807   3.614  10.939
   358G11  C0FL23623  11.693   3.545  10.958
   358G11  C0FK23624  11.584   3.584  11.045
   358G11  C0FM23625  11.467   3.511  11.041
   358G11  C0FN23626  11.450   3.412  10.941
   358G11  C0FP23627  11.562   3.369  10.865
   358G11  C0GO23628  11.554   3.265  10.774
   358G11  C0GN23629  11.662   3.192  10.732
   358G11  C0GR23630  11.789   3.256  10.746
   358G11  C0GS23631  11.901   3.196  10.691
   358G11  H01Q23632  12.003   3.232  10.704
   358G11  C0GT23633  11.895   3.078  10.616
   358G11  H01O23634  11.986   3.036  10.575
   358G11  C0GU23635  11.765   3.020  10.599
   358G11  H01P23636  11.748   2.931  10.540
   358G11  O00L23637  11.802   3.381  10.807
   358G11  C0GM23638  11.645   3.076  10.654
   358G11  C0GL23639  11.513   3.020  10.641
   358G11  H01R23640  11.494   2.919  10.607
   358G11  C0GK23641  11.403   3.096  10.687
   358G11  C0GP23642  11.264   3.066  10.700
   358G11  C0E223643  11.193   3.182  10.745
   358G11  C0E123644  11.093   3.145  10.832
   358G11  C0DU23645  11.069   3.184  10.969
   358G11  C0DT23646  11.116   3.291  11.051
   358G11  C0E423647  11.229   3.369  11.023
   358G11  C0E523648  11.254   3.449  11.133
   358G11  C0DS23649  11.096   3.298  11.185
   358G11  C0DR23650  11.016   3.195  11.240
   358G11  C0DD23651  10.988   3.187  11.378
   358G11  C0DC23652  10.941   3.048  11.391
   358G11  C0DP23653  10.945   2.968  11.268
   358G11  C0DA23654  10.899   2.831  11.247
   358G11  C0D923655  10.845   2.719  11.342
   358G11  C0CR23656  10.818   2.589  11.293
   358G11  C0C023657  10.854   2.551  11.161
   358G11  C0BZ23658  10.850   2.421  11.108
   358G11  C0C123659  10.891   2.391  10.979
   358G11  C0C723660  10.883   2.261  10.932
   358G11  C0C623661  10.936   2.225  10.808
   358G11  C0C923662  10.922   2.094  10.764
   358G11  C0B823663  10.981   2.059  10.643
   358G11  C0B723664  10.960   1.934  10.579
   358G11  C0B623665  11.011   1.868  10.458
   358G11  C0B523666  11.146   1.856  10.407
   358G11  H00Z23667  11.233   1.917  10.430
   358G11  C0B423668  11.151   1.731  10.325
   358G11  H01023669  11.241   1.685  10.289
   358G11  C0B323670  11.024   1.663  10.330
   358G11  C0AP23671  10.944   1.539  10.333
   358G11  C0AQ23672  10.832   1.576  10.415
   358G11  C0AR23673  10.764   1.482  10.485
   358G11  C0AS23674  10.706   1.532  10.592
   358G11  C0AT23675  10.727   1.656  10.655
   358G11  C0BA23676  10.802   1.746  10.583
   358G11  C0AU23677  10.690   1.685  10.777
   358G11  C0BE23678  10.737   1.798  10.844
   358G11  C0BI23679  10.704   1.821  10.979
   358G11  C0BJ23680  10.638   1.720  11.048
   358G11  C0BK23681  10.605   1.739  11.180
   358G11  C0BW23682  10.626   1.860  11.234
   358G11  C0BV23683  10.691   1.962  11.162
   358G11  C0BU23684  10.711   2.092  11.216
   358G11  C0BX23685  10.772   2.196  11.142
   358G11  C0BT23686  10.668   2.119  11.346
   358G11  C0CD23687  10.688   2.252  11.395
   358G11  C0CB23688  10.744   2.356  11.316
   358G11  C0CE23689  10.655   2.274  11.529
   358G11  C0CK23690  10.602   2.169  11.607
   358G11  C0BS23691  10.580   2.042  11.553
   358G11  C0CJ23692  10.523   1.935  11.635
   358G11  C0BP23693  10.498   1.806  11.577
   358G11  C0CI23694  10.443   1.702  11.649
   358G11  C0CH23695  10.394   1.589  11.577
   358G11  H01223696  10.335   1.522  11.637
   358G11  C0BN23697  10.443   1.563  11.448
   358G11  C0CG23698  10.408   1.439  11.383
   358G11  C0CF23699  10.344   1.330  11.459
   358G11  H01323700  10.295   1.350  11.553
   358G11  O00G23701  10.329   1.206  11.405
   358G11  C0AA23702  10.375   1.181  11.277
   358G11  C0A923703  10.371   1.051  11.239
   358G11  H00U23704  10.327   0.978  11.306
   358G11  C0A823705  10.409   1.014  11.114
   358G11  H00V23706  10.398   0.910  11.089
   358G11  C0A723707  10.465   1.111  11.022
   358G11  C0A623708  10.476   1.254  11.067
   358G11  C0A523709  10.522   1.363  10.993
   358G11  C0A423710  10.561   1.347  10.853
   358G11  C0A323711  10.571   1.244  10.747
   358G11  C0A223712  10.574   1.108  10.779
   358G11  C0A123713  10.579   1.011  10.668
   358G11  C0A023714  10.632   1.007  10.531
   358G11  C09Z23715  10.607   0.888  10.460
   358G11  C09Y23716  10.670   0.867  10.335
   358G11  H00Y23717  10.667   0.771  10.285
   358G11  C09X23718  10.748   0.971  10.283
   358G11  C09W23719  10.811   0.943  10.156
   358G11  H00R23720  10.791   0.857  10.094
   358G11  C0AX23721  10.903   1.028  10.099
   358G11  H00S23722  10.948   1.001  10.004
   358G11  C0AW23723  10.926   1.146  10.168
   358G11  H00T23724  10.999   1.215  10.126
   358G11  C0AN23725  10.854   1.190  10.282
   358G11  C0AO23726  10.867   1.317  10.340
   358G11  C0AM23727  10.764   1.096  10.348
   358G11  C0B223728  10.537   0.774  10.511
   358G11  O00D23729  10.530   0.668  10.450
   358G11  C0B123730  10.488   0.783  10.644
   358G11  H00W23731  10.435   0.700  10.688
   358G11  C0AL23732  10.697   1.121  10.466
   358G11  C0AK23733  10.707   1.251  10.513
   358G11  C0B023734  10.516   0.894  10.719
   358G11  C0AZ23735  10.476   0.916  10.854
   358G11  H00X23736  10.422   0.835  10.900
   358G11  C0AJ23737  10.636   1.300  10.630
   358G11  C0AH23738  10.596   1.465  10.792
   358G11  C0AE23739  10.541   1.492  11.052
   358G11  C0AD23740  10.500   1.520  11.180
   358G11  C0AY23741  10.507   1.052  10.892
   358G11  C0AB23742  10.424   1.288  11.196
   358G11  C0AC23743  10.439   1.417  11.253
   358G11  C0BM23744  10.498   1.667  11.376
   358G11  C0CM23745  10.422   1.717  11.791
   358G11  C09M23746  10.423   1.849  11.842
   358G11  C09823747  10.334   1.867  11.947
   358G11  C08R23748  10.320   1.972  12.046
   358G11  C08Q23749  10.206   1.966  12.130
   358G11  C08P23750  10.172   2.010  12.260
   358G11  C08Y23751  10.088   1.924  12.327
   358G11  C09723752  10.062   1.797  12.280
   358G11  C09623753  10.050   1.707  12.370
   358G11  C09023754  10.057   1.775  12.496
   358G11  C09523755   9.966   1.744  12.598
   358G11  C09423756   9.906   1.846  12.684
   358G11  C08J23757   9.948   1.979  12.727
   358G11  C08I23758   9.823   2.047  12.768
   358G11  C08H23759   9.849   2.193  12.754
   358G11  C08G23760   9.963   2.203  12.663
   358G11  C08F23761  10.055   2.303  12.621
   358G11  C08E23762  10.064   2.427  12.682
   358G11  C05923763  10.000   2.468  12.800
   358G11  C05823764  10.027   2.598  12.853
   358G11  C05723765   9.964   2.655  12.965
   358G11  C05623766   9.863   2.573  13.027
   358G11  C05523767   9.849   2.442  12.998
   358G11  C05423768   9.721   2.404  13.030
   358G11  C05323769   9.652   2.526  13.075
   358G11  C05223770   9.513   2.544  13.102
   358G11  C05123771   9.412   2.439  13.084
   358G11  C05U23772   9.437   2.307  13.020
   358G11  C05T23773   9.549   2.248  12.950
   358G11  C06K23774   9.519   2.108  12.944
   358G11  H00J23775   9.590   2.032  12.916
   358G11  C06L23776   9.388   2.082  12.980
   358G11  H00I23777   9.340   1.989  13.004
   358G11  C05V23778   9.336   2.208  13.030
   358G11  C06J23779   9.208   2.230  13.082
   358G11  H00K23780   9.128   2.158  13.090
   358G11  C05X23781   9.179   2.353  13.133
   358G11  C06I23782   9.052   2.383  13.192
   358G11  H00L23783   8.991   2.295  13.210
   358G11  C04Z23784   9.007   2.517  13.228
   358G11  C06H23785   8.868   2.536  13.265
   358G11  H00H23786   8.795   2.456  13.270
   358G11  C04Y23787   8.831   2.670  13.295
   358G11  C06G23788   8.691   2.695  13.331
   358G11  O00923789   8.601   2.611  13.322
   358G11  O00823790   8.660   2.823  13.366
   358G11  C04P23791   8.746   2.929  13.351
   358G11  C04J23792   8.708   3.067  13.379
   358G11  C04Q23793   8.581   3.125  13.412
   358G11  H00E23794   8.495   3.061  13.424
   358G11  C04M23795   8.560   3.263  13.435
   358G11  C04R23796   8.434   3.321  13.461
   358G11  H00F23797   8.350   3.253  13.471
   358G11  C04S23798   8.418   3.453  13.467
   358G11  H00G23799   8.321   3.497  13.480
   358G11  O00723800   8.520   3.547  13.445
   358G11  C03V23801   8.646   3.489  13.424
   358G11  C03U23802   8.753   3.573  13.409
   358G11  O00623803   8.728   3.703  13.427
   358G11  C03F23804   8.829   3.795  13.418
   358G11  C03E23805   8.963   3.752  13.384
   358G11  C03D23806   8.994   3.617  13.376
   358G11  C03C23807   9.123   3.579  13.347
   358G11  C03B23808   9.217   3.686  13.330
   358G11  C03A23809   9.350   3.652  13.307
   358G11  C03923810   9.394   3.514  13.286
   358G11  C03823811   9.538   3.527  13.253
   358G11  C03723812   9.559   3.669  13.256
   358G11  C03623813   9.683   3.720  13.242
   358G11  C02R23814   9.718   3.853  13.219
   358G11  C03523815   9.850   3.839  13.167
   358G11  C03R23816   9.877   3.712  13.132
   358G11  C03S23817   9.970   3.664  13.042
   358G11  C04923818   9.965   3.528  13.007
   358G11  C04823819   9.873   3.447  13.078
   358G11  C03P23820   9.762   3.498  13.161
   358G11  C04723821   9.899   3.307  13.061
   358G11  C04623822   9.826   3.202  13.115
   358G11  C04523823   9.703   3.199  13.184
   358G11  C03T23824   9.613   3.300  13.227
   358G11  C04423825   9.500   3.243  13.282
   358G11  C04323826   9.527   3.102  13.294
   358G11  C04223827   9.408   3.034  13.269
   358G11  C04123828   9.303   3.139  13.292
   358G11  C04023829   9.165   3.114  13.296
   358G11  C03Z23830   9.062   3.205  13.329
   358G11  C04H23831   8.943   3.126  13.341
   358G11  C04G23832   8.979   2.996  13.312
   358G11  C03N23833   9.047   3.349  13.346
   358G11  C03Y23834   8.913   3.394  13.372
   358G11  C03X23835   8.802   3.304  13.384
   358G11  C04F23836   9.111   2.983  13.288
   358G11  C04E23837   9.161   2.855  13.256
   358G11  C04O23838   9.064   2.750  13.255
   358G11  C04D23839   9.293   2.820  13.229
   358G11  C04V23840   9.328   2.688  13.192
   358G11  C04W23841   9.234   2.580  13.186
   358G11  C04C23842   9.410   2.893  13.219
   358G11  C04L23843   9.519   2.801  13.191
   358G11  C04U23844   9.656   2.832  13.196
   358G11  C05Q23845   9.756   2.756  13.137
   358G11  C05P23846   9.862   2.833  13.094
   358G11  C04T23847   9.831   2.966  13.115
   358G11  C04B23848   9.706   2.962  13.176
   358G11  C03M23849   9.362   3.276  13.299
   358G11  C04A23850   9.645   3.080  13.213
   358G11  C05H23851   9.886   3.084  13.078
   358G11  C05G23852   9.999   3.115  12.993
   358G11  C05F23853  10.077   3.019  12.925
   358G11  C05E23854  10.160   3.051  12.814
   358G11  C05L23855  10.207   3.166  12.744
   358G11  C05K23856  10.173   3.301  12.784
   358G11  C05J23857  10.080   3.349  12.891
   358G11  C06623858  10.241   3.403  12.709
   358G11  C06523859  10.323   3.369  12.596
   358G11  C06423860  10.350   3.232  12.559
   358G11  C06N23861  10.387   3.464  12.515
   358G11  C06923862  10.356   3.599  12.544
   358G11  C06P23863  10.411   3.700  12.462
   358G11  C06R23864  10.372   3.840  12.473
   358G11  C06B23865  10.298   3.876  12.583
   358G11  C06S23866  10.263   4.009  12.601
   358G11  C02G23867  10.180   4.047  12.711
   358G11  C02F23868  10.141   4.177  12.725
   358G11  C02723869  10.180   4.276  12.635
   358G11  C02623870  10.139   4.403  12.648
   358G11  C00E23871  10.175   4.499  12.553
   358G11  C00D23872  10.122   4.626  12.560
   358G11  C00C23873  10.147   4.713  12.454
   358G11  C00B23874  10.211   4.683  12.344
   358G11  C01523875  10.258   4.553  12.332
   358G11  C07F23876  10.318   4.514  12.214
   358G11  C07E23877  10.376   4.385  12.216
   358G11  C06W23878  10.359   4.297  12.319
   358G11  C06V23879  10.288   4.336  12.432
   358G11  C06X23880  10.403   4.167  12.304
   358G11  C07B23881  10.472   4.128  12.187
   358G11  C07C23882  10.505   4.220  12.092
   358G11  C0FU23883  10.579   4.178  11.982
   358G11  C0F723884  10.582   4.259  11.871
   358G11  C0F623885  10.664   4.224  11.763
   358G11  C0F823886  10.675   4.312  11.659
   358G11  C0F923887  10.763   4.282  11.553
   358G11  C0FA23888  10.799   4.380  11.458
   358G11  C0FZ23889  10.733   4.504  11.461
   358G11  C0G023890  10.762   4.599  11.367
   358G11  C0GD23891  10.857   4.567  11.266
   358G11  C0FC23892  10.924   4.446  11.260
   358G11  C0GH23893  11.026   4.419  11.168
   358G11  C0EY23894  11.095   4.298  11.174
   358G11  C0EX23895  11.202   4.270  11.090
   358G11  C0EW23896  11.265   4.148  11.092
   358G11  C0FR23897  11.379   4.127  11.007
   358G11  H01D23898  11.434   4.034  10.997
   358G11  C0FS23899  11.429   4.216  10.924
   358G11  H01C23900  11.522   4.206  10.869
   358G11  C0GJ23901  11.363   4.338  10.923
   358G11  H01N23902  11.415   4.417  10.871
   358G11  C0EV23903  11.211   4.050  11.171
   358G11  C0FT23904  11.272   3.920  11.169
   358G11  H01E23905  11.362   3.890  11.117
   358G11  C0EU23906  11.111   4.082  11.261
   358G11  C0ET23907  11.063   3.986  11.350
   358G11  C0EI23908  10.966   4.000  11.444
   358G11  C0F123909  10.912   4.127  11.446
   358G11  C0F023910  10.954   4.228  11.356
   358G11  C0EH23911  10.930   3.891  11.524
   358G11  C0EG23912  10.977   3.759  11.514
   358G11  C0EJ23913  10.848   3.927  11.634
   358G11  C0F323914  10.795   4.053  11.642
   358G11  C0EK23915  10.825   3.838  11.737
   358G11  C0EL23916  10.876   3.702  11.727
   358G11  C0EM23917  10.834   3.619  11.843
   358G11  C0EN23918  10.775   3.669  11.952
   358G11  C07I23919  10.733   3.576  12.040
   358G11  C07423920  10.651   3.609  12.146
   358G11  C07323921  10.600   3.503  12.219
   358G11  C07223922  10.515   3.538  12.323
   358G11  C07523923  10.613   3.740  12.155
   358G11  C07623924  10.652   3.833  12.063
   358G11  C07823925  10.603   3.961  12.075
   358G11  C07G23926  10.532   3.767  12.264
   358G11  C07023927  10.484   3.902  12.275
   358G11  C07Z23928  10.762   3.448  11.996
   358G11  C07723929  10.728   3.799  11.953
   358G11  C0EO23930  10.758   3.885  11.850
   358G11  C0F423931  10.703   4.013  11.857
   358G11  C0EQ23932  11.123   3.865  11.347
   358G11  C0FQ23933  11.242   4.364  10.992
   358G11  C0GI23934  11.168   4.482  10.990
   358G11  H01L23935  11.196   4.546  10.908
   358G11  C0EZ23936  11.052   4.203  11.261
   358G11  C0GG23937  11.063   4.517  11.074
   358G11  C0GF23938  10.988   4.635  11.075
   358G11  H01M23939  11.019   4.713  11.007
   358G11  C0GE23940  10.887   4.657  11.166
   358G11  H01K23941  10.847   4.757  11.165
   358G11  O00J23942  10.706   4.727  11.368
   358G11  C0GA23943  10.605   4.751  11.459
   358G11  C0G923944  10.535   4.872  11.455
   358G11  H01H23945  10.565   4.932  11.370
   358G11  C0G823946  10.447   4.905  11.559
   358G11  C0G723947  10.364   5.020  11.556
   358G11  H01I23948  10.361   5.076  11.464
   358G11  O00I23949  10.267   5.047  11.648
   358G11  C0G623950  10.265   4.959  11.754
   358G11  H01J23951  10.182   4.973  11.821
   358G11  C02D23952  10.350   4.848  11.774
   358G11  C02C23953  10.345   4.770  11.888
   358G11  C01723954  10.280   4.812  12.008
   358G11  C01623955  10.272   4.730  12.120
   358G11  O00123956  10.234   4.941  12.027
   358G11  C01823957  10.149   4.982  12.125
   358G11  C00923958  10.140   4.904  12.238
   358G11  C00823959  10.067   4.930  12.362
   358G11  C00723960   9.980   5.040  12.404
   358G11  C00623961   9.925   5.133  12.316
   358G11  C00523962   9.819   5.219  12.356
   358G11  C00423963   9.741   5.223  12.475
   358G11  C00323964   9.732   5.136  12.591
   358G11  C00223965   9.630   5.164  12.689
   358G11  C00P23966   9.599   5.067  12.790
   358G11  C00O23967   9.483   5.077  12.871
   358G11  C00N23968   9.448   4.978  12.964
   358G11  C01023969   9.330   4.989  13.036
   358G11  C01123970   9.291   4.895  13.128
   358G11  C01Q23971   9.171   4.906  13.196
   358G11  C01U23972   9.086   5.017  13.171
   358G11  C01223973   9.131   5.117  13.084
   358G11  H00023974   9.068   5.204  13.071
   358G11  C01V23975   8.968   5.027  13.253
   358G11  H00723976   8.899   5.110  13.247
   358G11  O00523977   8.946   4.940  13.358
   358G11  C01W23978   9.012   4.824  13.353
   358G11  C03123979   8.973   4.730  13.452
   358G11  C03223980   9.061   4.621  13.487
   358G11  H00A23981   9.031   4.550  13.563
   358G11  C03323982   9.173   4.600  13.406
   358G11  H00B23983   9.227   4.511  13.435
   358G11  C01O23984   9.207   4.691  13.300
   358G11  C01N23985   9.324   4.676  13.227
   358G11  C01M23986   9.406   4.556  13.239
   358G11  C01L23987   9.395   4.411  13.260
   358G11  C01K23988   9.524   4.364  13.249
   358G11  C01Y23989   9.565   4.233  13.232
   358G11  C02I23990   9.471   4.133  13.264
   358G11  C02N23991   9.516   3.996  13.255
   358G11  C02M23992   9.418   3.895  13.285
   358G11  C02L23993   9.282   3.927  13.316
   358G11  C02K23994   9.239   4.063  13.313
   358G11  C02U23995   9.108   4.094  13.337
   358G11  C02V23996   9.017   3.991  13.375
   358G11  C03H23997   8.891   4.028  13.427
   358G11  H00C23998   8.869   4.127  13.465
   358G11  C02W23999   9.053   4.219  13.314
   358G11  C02X24000   9.145   4.316  13.281
   358G11  C02Y24001   9.060   4.415  13.214
   358G11  H00824002   9.087   4.502  13.155
   358G11  C02Z24003   8.921   4.384  13.247
   358G11  O00424004   8.818   4.438  13.216
   358G11  O00324005   8.922   4.256  13.291
   358G11  C02J24006   9.335   4.170  13.288
   358G11  C01Z24007   9.690   4.215  13.174
   358G11  C02024008   9.764   4.312  13.108
   358G11  C01I24009   9.718   4.439  13.117
   358G11  C01H24010   9.760   4.540  13.033
   358G11  C00K24011   9.690   4.655  13.023
   358G11  C01S24012   9.574   4.675  13.100
   358G11  C01424013   9.489   4.776  13.076
   358G11  C00J24014   9.725   4.751  12.925
   358G11  C00I24015   9.828   4.726  12.841
   358G11  C00H24016   9.896   4.605  12.850
   358G11  C00G24017   9.991   4.569  12.753
   358G11  C00S24018   9.857   4.818  12.741
   358G11  C00T24019   9.959   4.777  12.656
   358G11  C00U24020   9.993   4.873  12.563
   358G11  C00R24021   9.784   4.938  12.725
   358G11  C00L24022   9.644   4.858  12.907
   358G11  C02824023   9.866   4.509  12.947
   358G11  C02324024   9.917   4.378  12.940
   358G11  C02424025  10.007   4.344  12.836
   358G11  C02124026   9.871   4.283  13.025
   358G11  C02224027   9.907   4.151  13.007
   358G11  C02H24028   9.998   4.118  12.908
   358G11  C03024029  10.047   3.988  12.897
   358G11  C03424030  10.004   3.893  12.988
   358G11  C02P24031   9.847   4.055  13.088
   358G11  C02B24032   9.729   4.080  13.163
   358G11  C01J24033   9.610   4.468  13.207
   358G11  C01X24034   9.289   4.305  13.278
   358G11  C01T24035   9.536   4.580  13.194
   358G11  H00924036   8.880   4.741  13.506
   358G11  C01P24037   9.129   4.806  13.282
   358G11  C01R24038   9.370   4.783  13.144
   358G11  C00Z24039   9.252   5.104  13.014
   358G11  O00024040   9.299   5.212  12.942
   358G11  C00M24041   9.528   4.871  12.983
   358G11  C00Y24042   9.407   5.194  12.862
   358G11  C01324043   9.443   5.297  12.775
   358G11  H00124044   9.388   5.390  12.781
   358G11  C00Q24045   9.678   4.958  12.813
   358G11  C00124046   9.550   5.280  12.682
   358G11  C00024047   9.579   5.378  12.587
   358G11  H00624048   9.533   5.476  12.584
   358G11  C00W24049   9.808   5.020  12.608
   358G11  C01G24050   9.665   5.344  12.485
   358G11  H00524051   9.686   5.429  12.422
   358G11  C01C24052   9.791   5.299  12.242
   358G11  H00224053   9.710   5.368  12.228
   358G11  C01B24054   9.886   5.262  12.137
   358G11  C01D24055   9.909   5.321  12.012
   358G11  H00324056   9.849   5.405  11.982
   358G11  C01E24057  10.014   5.267  11.935
   358G11  H00424058  10.039   5.308  11.838
   358G11  O00224059  10.099   5.167  11.980
   358G11  C01A24060   9.968   5.154  12.184
   358G11  C00V24061   9.917   4.984  12.527
   358G11  C01924062  10.072   5.102  12.100
   358G11  C02E24063  10.410   4.647  11.888
   358G11  C0FX24064  10.488   4.608  11.781
   358G11  C0FW24065  10.545   4.482  11.773
   358G11  C0GB24066  10.501   4.699  11.674
   358G11  C0G324067  10.397   4.559  11.998
   358G11  C07H24068  10.450   4.431  11.992
   358G11  C0GC24069  10.433   4.819  11.669
   358G11  C0G224070  10.584   4.658  11.569
   358G11  C0G124071  10.647   4.530  11.564
   358G11  C0FB24072  10.896   4.353  11.361
   358G11  C0F224073  10.818   4.155  11.546
   358G11  C0FY24074  10.618   4.440  11.665
   358G11  C0F524075  10.728   4.100  11.759
   358G11  C0FV24076  10.525   4.388  11.879
   358G11  C07924077  10.628   4.052  11.970
   358G11  C07A24078  10.517   3.996  12.177
   358G11  C06Y24079  10.370   4.069  12.401
   358G11  C07D24080  10.450   4.343  12.099
   358G11  C01F24081  10.324   4.599  12.106
   358G11  C00A24082  10.210   4.773  12.237
   358G11  C00X24083  10.080   4.836  12.461
   358G11  C00F24084  10.028   4.661  12.659
   358G11  C02924085  10.243   4.464  12.444
   358G11  C02524086  10.048   4.439  12.748
   358G11  C06U24087  10.257   4.240  12.525
   358G11  C02A24088  10.049   4.216  12.823
   358G11  C05Y24089  10.141   3.950  12.798
   358G11  C05Z24090  10.165   3.814  12.777
   358G11  C06024091  10.103   3.715  12.852
   358G11  C06224092  10.128   3.577  12.837
   358G11  C06T24093  10.297   4.108  12.510
   358G11  C06A24094  10.254   3.778  12.677
   358G11  C06Z24095  10.407   3.939  12.385
   358G11  C06Q24096  10.488   3.668  12.349
   358G11  C06824097  10.278   3.640  12.651
   358G11  C06724098  10.215   3.539  12.735
   358G11  C06324099  10.293   3.127  12.633
   358G11  C06C24100  10.309   2.996  12.591
   358G11  C06D24101  10.245   2.888  12.646
   358G11  C06E24102  10.241   2.759  12.601
   358G11  C07Q24103  10.306   2.729  12.484
   358G11  C07P24104  10.379   2.833  12.422
   358G11  C07T24105  10.454   2.803  12.310
   358G11  C07U24106  10.514   2.904  12.240
   358G11  C07V24107  10.568   2.875  12.120
   358G11  C08424108  10.569   2.742  12.071
   358G11  C08C24109  10.511   2.639  12.143
   358G11  C08B24110  10.509   2.515  12.096
   358G11  C08A24111  10.454   2.415  12.177
   358G11  C08924112  10.387   2.438  12.292
   358G11  C08824113  10.310   2.335  12.350
   358G11  C08724114  10.230   2.363  12.456
   358G11  C08624115  10.228   2.496  12.503
   358G11  C08X24116  10.300   2.209  12.285
   358G11  C08T24117  10.387   2.176  12.171
   358G11  C08D24118  10.385   2.566  12.336
   358G11  C08U24119  10.455   2.287  12.123
   358G11  C08V24120  10.500   2.259  11.997
   358G11  C0CY24121  10.552   2.356  11.916
   358G11  C0CX24122  10.578   2.326  11.784
   358G11  C0CW24123  10.636   2.431  11.708
   358G11  C0CV24124  10.657   2.556  11.761
   358G11  C0D424125  10.610   2.586  11.894
   358G11  C0CU24126  10.707   2.655  11.684
   358G11  C0CT24127  10.747   2.639  11.550
   358G11  C0CS24128  10.725   2.509  11.496
   358G11  C0D624129  10.710   2.782  11.740
   358G11  C0EC24130  10.661   2.815  11.865
   358G11  C07X24131  10.677   2.948  11.921
   358G11  C0DL24132  10.773   2.878  11.669
   358G11  C0DK24133  10.798   3.001  11.728
   358G11  C0DN24134  10.871   3.071  11.637
   358G11  C0D824135  10.826   2.865  11.539
   358G11  C08W24136  10.480   2.129  11.957
   358G11  C0CQ24137  10.508   2.095  11.820
   358G11  C09324138  10.560   2.482  11.968
   358G11  C09224139  10.612   2.715  11.943
   358G11  C08524140  10.451   2.669  12.265
   358G11  C07S24141  10.308   2.594  12.445
   358G11  C06F24142  10.162   2.655  12.664
   358G11  C07O24143  10.378   2.963  12.471
   358G11  C07N24144  10.440   3.069  12.405
   358G11  C05D24145  10.179   2.921  12.759
   358G11  C05C24146  10.117   2.819  12.825
   358G11  C05N24147  10.045   2.877  12.926
   358G11  C05M24148   9.996   3.254  12.971
   358G11  C05I24149  10.057   3.483  12.909
   358G11  C06124150  10.029   3.758  12.964
   358G11  C02Q24151   9.909   3.935  13.085
   358G11  C02O24152   9.650   3.978  13.213
   358G11  C03Q24153   9.777   3.634  13.188
   358G11  C03O24154   9.642   3.436  13.208
   358G11  C03L24155   9.297   3.405  13.298
   358G11  C02S24156   9.446   3.751  13.277
   358G11  C02T24157   9.187   3.827  13.341
   358G11  C03K24158   9.157   3.440  13.328
   358G11  C03I24159   9.057   3.857  13.364
   358G11  C03G24160   8.793   3.930  13.446
   358G11  H00D24161   8.693   3.948  13.485
   358G11  C03J24162   8.886   3.527  13.388
   358G11  C03W24163   8.671   3.351  13.418
   358G11  C04I24164   8.809   3.171  13.369
   358G11  C04K24165   8.879   2.901  13.323
   358G11  C04N24166   8.924   2.772  13.288
   358G11  C04X24167   9.104   2.618  13.218
   358G11  C05024168   9.276   2.457  13.126
   358G11  C05W24169   9.464   2.674  13.155
   358G11  C05S24170   9.676   2.307  12.935
   358G11  C05R24171   9.754   2.624  13.092
   358G11  C05O24172   9.964   2.790  13.005
   358G11  C05B24173  10.105   2.682  12.781
   358G11  C05A24174   9.896   2.397  12.874
   358G11  C07R24175  10.152   2.526  12.613
   358G11  C08N24176  10.142   2.269  12.512
   358G11  C08M24177  10.140   2.141  12.455
   358G11  C08L24178  10.076   2.039  12.524
   358G11  C09124179   9.801   2.293  12.846
   358G11  C09K24180   9.709   1.965  12.724
   358G11  H00M24181   9.604   1.985  12.710
   358G11  C08K24182  10.015   2.070  12.642
   358G11  C09J24183   9.765   1.829  12.695
   358G11  C09I24184   9.742   1.697  12.644
   358G11  C09L24185   9.635   1.606  12.670
   358G11  H00N24186   9.548   1.626  12.731
   358G11  C09Q24187   9.641   1.484  12.611
   358G11  H00O24188   9.567   1.410  12.637
   358G11  O00B24189   9.746   1.445  12.530
   358G11  C09G24190   9.853   1.531  12.498
   358G11  C09F24191   9.948   1.485  12.398
   358G11  O00A24192   9.934   1.356  12.343
   358G11  C09P24193  10.040   1.309  12.269
   358G11  H00P24194  10.059   1.204  12.284
   358G11  C09O24195  10.114   1.400  12.182
   358G11  C09D24196  10.094   1.537  12.203
   358G11  C09C24197  10.119   1.640  12.116
   358G11  C09N24198  10.193   1.662  11.997
   358G11  C09T24199  10.286   1.568  11.952
   358G11  C09S24200  10.289   1.431  11.993
   358G11  C0CP24201  10.397   1.376  11.926
   358G11  C0CN24202  10.462   1.468  11.848
   358G11  C0CO24203  10.564   1.419  11.764
   358G11  H01424204  10.622   1.489  11.706
   358G11  C0CZ24205  10.579   1.284  11.748
   358G11  H01524206  10.654   1.253  11.678
   358G11  C0D024207  10.501   1.187  11.819
   358G11  C0G524208  10.512   1.044  11.810
   358G11  H01F24209  10.572   0.991  11.737
   358G11  C0G424210  10.442   0.959  11.891
   358G11  H01G24211  10.455   0.853  11.875
   358G11  O00H24212  10.358   1.009  11.988
   358G11  C0D224213  10.336   1.144  11.994
   358G11  C09V24214  10.243   1.210  12.080
   358G11  H00Q24215  10.199   1.137  12.145
   358G11  C0D124216  10.414   1.234  11.921
   358G11  C09R24217  10.205   1.349  12.079
   358G11  C09H24218   9.860   1.650  12.570
   358G11  C09E24219  10.023   1.577  12.324
   358G11  C09B24220  10.084   1.766  12.149
   358G11  C08Z24221  10.085   1.915  12.461
   358G11  C08O24222  10.214   2.116  12.334
   358G11  C09A24223  10.132   1.863  12.061
   358G11  C08S24224  10.416   2.074  12.072
   358G11  C09924225  10.203   1.798  11.960
   358G11  C09U24226  10.394   1.593  11.861
   358G11  C0BO24227  10.526   1.792  11.439
   358G11  C0CL24228  10.486   1.961  11.770
   358G11  C0D324229  10.562   2.196  11.738
   358G11  C0D524230  10.670   2.404  11.577
   358G11  C0BR24231  10.616   2.018  11.421
   358G11  C0BQ24232  10.591   1.888  11.367
   358G11  C0BL24233  10.531   1.642  11.244
   358G11  C0AF24234  10.601   1.602  10.988
   358G11  C0BH24235  10.734   1.941  11.034
   358G11  C0BG24236  10.801   2.036  10.964
   358G11  C0BD24237  10.815   1.888  10.774
   358G11  C0AG24238  10.627   1.590  10.852
   358G11  C0AI24239  10.645   1.433  10.664
   358G11  C0AV24240  10.777   1.348  10.449
   358G11  C0BB24241  10.841   1.712  10.454
   358G11  O00C24242  10.958   1.408  10.289
   358G11  C0BC24243  10.944   1.768  10.389
   358G11  C0B924244  10.862   1.858  10.641
   358G11  O00E24245  11.050   2.151  10.568
   358G11  C0CA24246  11.055   2.283  10.598
   358G11  O00F24247  11.109   2.361  10.519
   358G11  C0BF24248  10.849   2.004  10.836
   358G11  C0C524249  10.996   2.320  10.724
   358G11  C0C424250  10.995   2.456  10.760
   358G11  H01124251  11.048   2.531  10.703
   358G11  C0C824252  10.824   2.165  11.015
   358G11  C0C224253  10.946   2.489  10.893
   358G11  C0C324254  10.937   2.618  10.949
   358G11  C0DY24255  10.964   2.738  10.882
   358G11  H01624256  11.001   2.755  10.782
   358G11  C0DX24257  10.948   2.842  10.980
   358G11  C0DW24258  11.018   2.963  10.946
   358G11  C0BY24259  10.789   2.323  11.190
   358G11  C0DB24260  10.896   2.653  11.079
   358G11  C0CC24261  10.760   2.484  11.368
   358G11  C0D724262  10.806   2.737  11.471
   358G11  C0DZ24263  10.913   2.784  11.111
   358G11  C0DM24264  10.892   2.996  11.513
   358G11  C0DQ24265  10.987   3.071  11.174
   358G11  C0DV24266  11.015   3.072  11.035
   358G11  C0E024267  11.075   3.006  10.826
   358G11  C0FO24268  11.300   3.278  10.790
   358G11  C0E324269  11.199   2.951  10.762
   358G11  H01724270  11.236   2.851  10.778
   358G11  C0GV24271  11.423   3.225  10.740
   358G11  C0ES24272  11.317   3.355  10.911
   358G11  C0GQ24273  11.687   3.434  10.879
   358G11  C0FJ24274  11.611   3.685  11.143
   358G11  C0ED24275  11.366   3.538  11.136
   358G11  C0ER24276  11.231   3.830  11.263
   358G11  C0EP24277  11.078   3.751  11.403
   358G11  C0E624278  11.151   3.420  11.231
   358G11  C0DE24279  11.012   3.296  11.477
   358G11  C0EA24280  10.937   3.658  11.602
   358G11  C0DF24281  10.993   3.286  11.617
   358G11  C08024282  10.837   3.477  11.873
   358G11  C0DO24283  10.907   3.196  11.679
   358G11  C0DJ24284  10.748   3.041  11.854
   358G11  C07K24285  10.695   3.338  12.067
   358G11  C07W24286  10.624   2.974  12.040
   358G11  C08324287  10.506   3.036  12.286
   358G11  C07J24288  10.617   3.372  12.182
   358G11  C06O24289  10.463   3.437  12.406
   358G11  C06M24290  10.426   3.200  12.444
   368G11  C07124291   9.481   9.576  10.333
   368G11  C07L24292   9.350   9.525  10.312
   368G11  C07M24293   9.238   9.586  10.354
   368G11  C07Y24294   9.108   9.531  10.335
   368G11  C08124295   9.089   9.406  10.274
   368G11  C08224296   8.955   9.356  10.264
   368G11  C0DI24297   8.909   9.228  10.208
   368G11  C0DH24298   8.972   9.103  10.173
   368G11  C0DG24299   8.881   9.013  10.105
   368G11  C0E924300   8.882   8.869  10.110
   368G11  C0E824301   8.734   8.833  10.133
   368G11  C0E724302   8.665   8.708  10.092
   368G11  C0EB24303   8.740   8.596  10.038
   368G11  C0EF24304   8.680   8.481   9.966
   368G11  C0EE24305   8.551   8.461   9.902
   368G11  C0FD24306   8.546   8.383   9.780
   368G11  C0FE24307   8.658   8.350   9.693
   368G11  H01B24308   8.758   8.373   9.725
   368G11  C0FF24309   8.646   8.260   9.592
   368G11  H01A24310   8.734   8.221   9.542
   368G11  C0FG24311   8.520   8.224   9.548
   368G11  H01824312   8.507   8.156   9.465
   368G11  C0FH24313   8.403   8.261   9.616
   368G11  C0FI24314   8.275   8.215   9.579
   368G11  H01924315   8.269   8.138   9.503
   368G11  O00K24316   8.165   8.254   9.644
   368G11  C0FL24317   8.185   8.311   9.770
   368G11  C0FK24318   8.310   8.358   9.818
   368G11  C0FM24319   8.317   8.427   9.935
   368G11  C0FN24320   8.201   8.427  10.020
   368G11  C0FP24321   8.079   8.378   9.973
   368G11  C0GO24322   7.961   8.387  10.039
   368G11  C0GN24323   7.831   8.361   9.989
   368G11  C0GR24324   7.830   8.301   9.861
   368G11  C0GS24325   7.704   8.280   9.797
   368G11  H01Q24326   7.696   8.222   9.706
   368G11  C0GT24327   7.588   8.317   9.868
   368G11  H01O24328   7.490   8.302   9.826
   368G11  C0GU24329   7.594   8.357  10.003
   368G11  H01P24330   7.500   8.358  10.057
   368G11  O00L24331   7.949   8.271   9.795
   368G11  C0GM24332   7.713   8.397  10.064
   368G11  C0GL24333   7.736   8.457  10.192
   368G11  H01R24334   7.655   8.492  10.255
   368G11  C0GK24335   7.863   8.482  10.243
   368G11  C0GP24336   7.915   8.558  10.353
   368G11  C0E224337   8.058   8.528  10.357
   368G11  C0E124338   8.119   8.647  10.404
   368G11  C0DU24339   8.227   8.719  10.342
   368G11  C0DT24340   8.333   8.674  10.264
   368G11  C0E424341   8.319   8.569  10.176
   368G11  C0E524342   8.427   8.582  10.088
   368G11  C0DS24343   8.437   8.754  10.224
   368G11  C0DR24344   8.438   8.885  10.265
   368G11  C0DD24345   8.535   8.980  10.251
   368G11  C0DC24346   8.474   9.104  10.311
   368G11  C0DP24347   8.346   9.087  10.361
   368G11  C0DA24348   8.252   9.187  10.430
   368G11  C0D924349   8.268   9.328  10.474
   368G11  C0CR24350   8.159   9.405  10.531
   368G11  C0C024351   8.031   9.359  10.535
   368G11  C0BZ24352   7.924   9.421  10.596
   368G11  C0C124353   7.799   9.352  10.608
   368G11  C0C724354   7.688   9.422  10.664
   368G11  C0C624355   7.559   9.366  10.665
   368G11  C0C924356   7.449   9.438  10.715
   368G11  C0B824357   7.329   9.371  10.720
   368G11  C0B724358   7.215   9.435  10.770
   368G11  C0B624359   7.083   9.386  10.792
   368G11  C0B524360   7.071   9.252  10.830
   368G11  H00Z24361   7.139   9.168  10.821
   368G11  C0B424362   6.952   9.257  10.914
   368G11  H01024363   6.921   9.190  10.993
   368G11  C0B324364   6.893   9.388  10.909
   368G11  C0AP24365   6.847   9.483  11.011
   368G11  C0AQ24366   6.909   9.606  10.982
   368G11  C0AR24367   6.939   9.692  11.085
   368G11  C0AS24368   7.058   9.766  11.065
   368G11  C0AT24369   7.155   9.740  10.966
   368G11  C0BA24370   7.131   9.645  10.872
   368G11  C0AU24371   7.284   9.784  10.978
   368G11  C0BE24372   7.389   9.732  10.902
   368G11  C0BI24373   7.520   9.783  10.919
   368G11  C0BJ24374   7.545   9.877  11.013
   368G11  C0BK24375   7.672   9.921  11.033
   368G11  C0BW24376   7.774   9.883  10.949
   368G11  C0BV24377   7.749   9.777  10.866
   368G11  C0BU24378   7.856   9.723  10.800
   368G11  C0BX24379   7.832   9.601  10.731
   368G11  C0BT24380   7.982   9.782  10.802
   368G11  C0CD24381   8.085   9.719  10.731
   368G11  C0CB24382   8.067   9.603  10.656
   368G11  C0CE24383   8.210   9.775  10.733
   368G11  C0CK24384   8.230   9.894  10.803
   368G11  C0BS24385   8.131   9.949  10.887
   368G11  C0CJ24386   8.152  10.056  10.976
   368G11  C0BP24387   8.055  10.095  11.066
   368G11  C0CI24388   8.075  10.197  11.162
   368G11  C0CH24389   7.984  10.192  11.272
   368G11  H01224390   8.019  10.245  11.359
   368G11  C0BN24391   7.854  10.134  11.265
   368G11  C0CG24392   7.760  10.163  11.362
   368G11  C0CF24393   7.790  10.244  11.477
   368G11  H01324394   7.884  10.294  11.494
   368G11  O00G24395   7.694  10.278  11.572
   368G11  C0AA24396   7.564  10.230  11.550
   368G11  C0A924397   7.474  10.262  11.651
   368G11  H00U24398   7.510  10.326  11.730
   368G11  C0A824399   7.358  10.195  11.657
   368G11  H00V24400   7.300  10.227  11.742
   368G11  C0A724401   7.315  10.105  11.552
   368G11  C0A624402   7.403  10.078  11.441
   368G11  C0A524403   7.376  10.015  11.316
   368G11  C0A424404   7.246   9.953  11.298
   368G11  C0A324405   7.130   9.924  11.382
   368G11  C0A224406   7.124   9.936  11.518
   368G11  C0A124407   7.008   9.900  11.593
   368G11  C0A024408   6.893   9.807  11.572
   368G11  C09Z24409   6.811   9.788  11.685
   368G11  C09Y24410   6.711   9.686  11.689
   368G11  H00Y24411   6.646   9.680  11.775
   368G11  C09X24412   6.697   9.601  11.577
   368G11  C09W24413   6.617   9.495  11.597
   368G11  H00R24414   6.577   9.476  11.695
   368G11  C0AX24415   6.599   9.396  11.501
   368G11  H00S24416   6.534   9.313  11.521
   368G11  C0AW24417   6.653   9.423  11.375
   368G11  H00T24418   6.632   9.349  11.300
   368G11  C0AN24419   6.748   9.529  11.355
   368G11  C0AO24420   6.805   9.557  11.230
   368G11  C0AM24421   6.772   9.617  11.463
   368G11  C0B224422   6.814   9.860  11.809
   368G11  O00D24423   6.738   9.840  11.904
   368G11  C0B124424   6.901   9.977  11.804
   368G11  H00W24425   6.896  10.037  11.894
   368G11  C0AL24426   6.871   9.721  11.452
   368G11  C0AK24427   6.933   9.738  11.327
   368G11  C0B024428   7.000   9.986  11.705
   368G11  C0AZ24429   7.101  10.084  11.697
   368G11  H00X24430   7.112  10.154  11.778
   368G11  C0AJ24431   7.040   9.840  11.300
   368G11  C0AH24432   7.218   9.909  11.170
   368G11  C0AE24433   7.473   9.992  11.218
   368G11  C0AD24434   7.606  10.030  11.239
   368G11  C0AY24435   7.186  10.045  11.589
   368G11  C0AB24436   7.531  10.143  11.445
   368G11  C0AC24437   7.633  10.110  11.350
   368G11  C0BM24438   7.828  10.061  11.151
   368G11  C0CM24439   8.177  10.291  11.138
   368G11  C09M24440   8.288  10.255  11.055
   368G11  C09824441   8.399  10.345  11.042
   368G11  C08R24442   8.543  10.329  11.002
   368G11  C08Q24443   8.623  10.441  11.007
   368G11  C08P24444   8.761  10.458  11.039
   368G11  C08Y24445   8.798  10.582  11.107
   368G11  C09724446   8.694  10.658  11.164
   368G11  C09624447   8.727  10.697  11.289
   368G11  C09024448   8.860  10.654  11.314
   368G11  C09524449   8.930  10.667  11.435
   368G11  C09424450   9.072  10.627  11.445
   368G11  C08J24451   9.157  10.524  11.392
   368G11  C08I24452   9.290  10.578  11.384
   368G11  C08H24453   9.362  10.507  11.273
   368G11  C08G24454   9.258  10.439  11.192
   368G11  C08F24455   9.245  10.370  11.062
   368G11  C08E24456   9.352  10.332  10.984
   368G11  C05924457   9.481  10.391  10.993
   368G11  C05824458   9.579  10.361  10.891
   368G11  C05724459   9.705  10.414  10.883
   368G11  C05624460   9.742  10.499  10.988
   368G11  C05524461   9.651  10.558  11.074
   368G11  C05424462   9.714  10.612  11.184
   368G11  C05324463   9.857  10.572  11.173
   368G11  C05224464   9.962  10.578  11.268
   368G11  C05124465   9.938  10.632  11.404
   368G11  C05U24466   9.808  10.650  11.468
   368G11  C05T24467   9.672  10.619  11.429
   368G11  C06K24468   9.590  10.673  11.535
   368G11  H00J24469   9.483  10.656  11.537
   368G11  C06L24470   9.666  10.753  11.627
   368G11  H00I24471   9.627  10.794  11.719
   368G11  C05V24472   9.800  10.733  11.585
   368G11  C06J24473   9.913  10.779  11.649
   368G11  H00K24474   9.910  10.838  11.740
   368G11  C05X24475  10.044  10.738  11.609
   368G11  C06I24476  10.164  10.772  11.676
   368G11  H00L24477  10.164  10.841  11.759
   368G11  C04Z24478  10.293  10.722  11.639
   368G11  C06H24479  10.411  10.756  11.709
   368G11  H00H24480  10.410  10.829  11.789
   368G11  C04Y24481  10.540  10.704  11.662
   368G11  C06G24482  10.661  10.746  11.732
   368G11  O00924483  10.657  10.829  11.824
   368G11  O00824484  10.781  10.685  11.691
   368G11  C04P24485  10.788  10.585  11.597
   368G11  C04J24486  10.904  10.517  11.550
   368G11  C04Q24487  11.033  10.523  11.610
   368G11  H00E24488  11.049  10.575  11.704
   368G11  C04M24489  11.146  10.459  11.555
   368G11  C04R24490  11.279  10.455  11.611
   368G11  H00F24491  11.293  10.505  11.706
   368G11  C04S24492  11.376  10.386  11.552
   368G11  H00G24493  11.468  10.386  11.610
   368G11  O00724494  11.364  10.323  11.430
   368G11  C03V24495  11.237  10.313  11.385
   368G11  C03U24496  11.216  10.224  11.278
   368G11  O00624497  11.329  10.162  11.231
   368G11  C03F24498  11.315  10.057  11.151
   368G11  C03E24499  11.188  10.041  11.087
   368G11  C03D24500  11.076  10.118  11.117
   368G11  C03C24501  10.956  10.110  11.045
   368G11  C03B24502  10.961  10.020  10.937
   368G11  C03A24503  10.856  10.021  10.848
   368G11  C03924504  10.737  10.096  10.883
   368G11  C03824505  10.649  10.053  10.772
   368G11  C03724506  10.727   9.967  10.684
   368G11  C03624507  10.666   9.914  10.577
   368G11  C02R24508  10.718   9.815  10.494
   368G11  C03524509  10.607   9.779  10.414
   368G11  C03R24510  10.493   9.854  10.438
   368G11  C03S24511  10.365   9.802  10.428
   368G11  C04924512  10.268   9.868  10.492
   368G11  C04824513  10.305   9.967  10.588
   368G11  C03P24514  10.439   9.994  10.635
   368G11  C04724515  10.195  10.042  10.633
   368G11  C04624516  10.204  10.153  10.713
   368G11  C04524517  10.309  10.204  10.796
   368G11  C03T24518  10.441  10.161  10.814
   368G11  C04424519  10.494  10.244  10.921
   368G11  C04324520  10.393  10.334  10.955
   368G11  C04224521  10.407  10.377  11.086
   368G11  C04124522  10.541  10.320  11.121
   368G11  C04024523  10.616  10.355  11.236
   368G11  C03Z24524  10.753  10.330  11.262
   368G11  C04H24525  10.778  10.401  11.375
   368G11  C04G24526  10.667  10.467  11.418
   368G11  C03N24527  10.858  10.257  11.205
   368G11  C03Y24528  10.984  10.273  11.275
   368G11  C03X24529  11.000  10.355  11.388
   368G11  C04F24530  10.562  10.446  11.337
   368G11  C04E24531  10.439  10.512  11.369
   368G11  C04O24532  10.432  10.586  11.483
   368G11  C04D24533  10.321  10.498  11.291
   368G11  C04V24534  10.199  10.556  11.334
   368G11  C04W24535  10.181  10.621  11.455
   368G11  C04C24536  10.301  10.439  11.167
   368G11  C04L24537  10.162  10.483  11.122
   368G11  C04U24538  10.106  10.444  10.998
   368G11  C05Q24539   9.969  10.454  10.970
   368G11  C05P24540   9.937  10.378  10.864
   368G11  C04T24541  10.053  10.310  10.822
   368G11  C04B24542  10.156  10.355  10.904
   368G11  C03M24543  10.599  10.239  11.019
   368G11  C04A24544  10.278  10.303  10.886
   368G11  C05H24545  10.074  10.203  10.728
   368G11  C05G24546   9.986  10.133  10.647
   368G11  C05F24547   9.853  10.161  10.628
   368G11  C05E24548   9.759  10.061  10.589
   368G11  C05L24549   9.769   9.927  10.522
   368G11  C05K24550   9.890   9.860  10.477
   368G11  C05J24551  10.025   9.900  10.510
   368G11  C06624552   9.874   9.735  10.410
   368G11  C06524553   9.745   9.684  10.388
   368G11  C06424554   9.625   9.749  10.426
   368G11  C06N24555   9.732   9.564  10.319
   368G11  C06924556   9.843   9.487  10.279
   368G11  C06P24557   9.826   9.358  10.229
   368G11  C06R24558   9.938   9.282  10.202
   368G11  C06B24559  10.063   9.332  10.227
   368G11  C06S24560  10.178   9.249  10.207
   368G11  C02G24561  10.306   9.303  10.229
   368G11  C02F24562  10.417   9.220  10.209
   368G11  C02724563  10.399   9.092  10.158
   368G11  C02624564  10.511   9.008  10.149
   368G11  C00E24565  10.494   8.878  10.136
   368G11  C00D24566  10.600   8.792  10.143
   368G11  C00C24567  10.574   8.657  10.139
   368G11  C00B24568  10.457   8.599  10.112
   368G11  C01524569  10.345   8.686  10.100
   368G11  C07F24570  10.221   8.631  10.072
   368G11  C07E24571  10.117   8.720  10.057
   368G11  C06W24572  10.128   8.856  10.089
   368G11  C06V24573  10.258   8.905  10.113
   368G11  C06X24574  10.018   8.936  10.103
   368G11  C07B24575   9.894   8.883  10.087
   368G11  C07C24576   9.880   8.751  10.055
   368G11  C0FU24577   9.751   8.696  10.047
   368G11  C0F724578   9.734   8.564  10.020
   368G11  C0F624579   9.604   8.513  10.010
   368G11  C0F824580   9.590   8.380   9.970
   368G11  C0F924581   9.461   8.327   9.951
   368G11  C0FA24582   9.448   8.192   9.914
   368G11  C0FZ24583   9.560   8.121   9.886
   368G11  C0G024584   9.553   7.982   9.867
   368G11  C0GD24585   9.431   7.913   9.859
   368G11  C0FC24586   9.315   7.987   9.884
   368G11  C0GH24587   9.190   7.926   9.881
   368G11  C0EY24588   9.077   8.008   9.900
   368G11  C0EX24589   8.945   7.946   9.905
   368G11  C0EW24590   8.838   8.026   9.924
   368G11  C0FR24591   8.708   7.970   9.917
   368G11  H01D24592   8.613   8.021   9.928
   368G11  C0FS24593   8.694   7.830   9.895
   368G11  H01C24594   8.597   7.782   9.885
   368G11  C0GJ24595   8.808   7.755   9.863
   368G11  H01N24596   8.800   7.651   9.835
   368G11  C0EV24597   8.853   8.161   9.947
   368G11  C0FT24598   8.744   8.241   9.956
   368G11  H01E24599   8.643   8.206   9.943
   368G11  C0EU24600   8.978   8.218   9.957
   368G11  C0ET24601   8.996   8.354   9.995
   368G11  C0EI24602   9.113   8.420   9.997
   368G11  C0F124603   9.225   8.338   9.969
   368G11  C0F024604   9.213   8.205   9.939
   368G11  C0EH24605   9.122   8.557  10.028
   368G11  C0EG24606   9.003   8.642  10.053
   368G11  C0EJ24607   9.247   8.615  10.040
   368G11  C0F324608   9.359   8.533  10.013
   368G11  C0EK24609   9.258   8.748  10.074
   368G11  C0EL24610   9.141   8.835  10.099
   368G11  C0EM24611   9.178   8.972  10.130
   368G11  C0EN24612   9.311   9.010  10.130
   368G11  C07I24613   9.326   9.144  10.158
   368G11  C07424614   9.454   9.201  10.173
   368G11  C07324615   9.456   9.331  10.219
   368G11  C07224616   9.584   9.380  10.244
   368G11  C07524617   9.563   9.119  10.157
   368G11  C07624618   9.546   8.988  10.119
   368G11  C07824619   9.655   8.908  10.102
   368G11  C07G24620   9.686   9.173  10.182
   368G11  C07024621   9.797   9.098  10.149
   368G11  C07Z24622   9.201   9.206  10.181
   368G11  C07724623   9.417   8.932  10.104
   368G11  C0EO24624   9.395   8.798  10.075
   368G11  C0F424625   9.504   8.721  10.059
   368G11  C0EQ24626   8.887   8.434  10.005
   368G11  C0FQ24627   8.935   7.810   9.874
   368G11  C0GI24628   9.050   7.738   9.872
   368G11  H01L24629   9.032   7.632   9.873
   368G11  C0EZ24630   9.090   8.142   9.927
   368G11  C0GG24631   9.184   7.791   9.877
   368G11  C0GF24632   9.301   7.712   9.876
   368G11  H01M24633   9.300   7.604   9.878
   368G11  C0GE24634   9.425   7.775   9.852
   368G11  H01K24635   9.514   7.715   9.843
   368G11  O00J24636   9.663   7.908   9.839
   368G11  C0GA24637   9.782   7.955   9.874
   368G11  C0G924638   9.888   7.864   9.871
   368G11  H01H24639   9.871   7.762   9.841
   368G11  C0G824640  10.016   7.902   9.918
   368G11  C0G724641  10.132   7.822   9.921
   368G11  H01I24642  10.124   7.718   9.895
   368G11  O00I24643  10.259   7.863   9.957
   368G11  C0G624644  10.266   7.995   9.987
   368G11  H01J24645  10.371   8.023   9.991
   368G11  C02D24646  10.159   8.083   9.999
   368G11  C02C24647  10.181   8.221  10.021
   368G11  C01724648  10.310   8.271  10.055
   368G11  C01624649  10.323   8.411  10.073
   368G11  O00124650  10.419   8.192  10.089
   368G11  C01824651  10.538   8.238  10.135
   368G11  C00924652  10.560   8.373  10.134
   368G11  C00824653  10.686   8.436  10.158
   368G11  C00724654  10.817   8.398  10.200
   368G11  C00624655  10.848   8.266  10.235
   368G11  C00524656  10.970   8.228  10.298
   368G11  C00424657  11.088   8.311  10.331
   368G11  C00324658  11.109   8.456  10.336
   368G11  C00224659  11.228   8.512  10.401
   368G11  C00P24660  11.254   8.651  10.412
   368G11  C00O24661  11.363   8.702  10.483
   368G11  C00N24662  11.383   8.839  10.493
   368G11  C01024663  11.481   8.888  10.571
   368G11  C01124664  11.505   9.026  10.585
   368G11  C01Q24665  11.604   9.071  10.669
   368G11  C01U24666  11.689   8.976  10.736
   368G11  C01224667  11.671   8.838  10.710
   368G11  H00024668  11.731   8.760  10.753
   368G11  C01V24669  11.788   9.038  10.821
   368G11  H00724670  11.867   8.974  10.859
   368G11  O00524671  11.791   9.171  10.858
   368G11  C01W24672  11.716   9.256  10.783
   368G11  C03124673  11.734   9.391  10.804
   368G11  C03224674  11.666   9.482  10.724
   368G11  H00A24675  11.669   9.589  10.740
   368G11  C03324676  11.571   9.437  10.627
   368G11  H00B24677  11.507   9.506  10.574
   368G11  C01O24678  11.537   9.297  10.623
   368G11  C01N24679  11.427   9.252  10.557
   368G11  C01M24680  11.321   9.341  10.509
   368G11  C01L24681  11.264   9.472  10.539
   368G11  C01K24682  11.154   9.485  10.451
   368G11  C01Y24683  11.051   9.579  10.466
   368G11  C02I24684  11.059   9.670  10.570
   368G11  C02N24685  10.951   9.762  10.583
   368G11  C02M24686  10.960   9.847  10.696
   368G11  C02L24687  11.066   9.848  10.784
   368G11  C02K24688  11.174   9.758  10.766
   368G11  C02U24689  11.272   9.755  10.865
   368G11  C02V24690  11.289   9.860  10.952
   368G11  C03H24691  11.411   9.876  11.031
   368G11  H00C24692  11.489   9.803  11.020
   368G11  C02W24693  11.337   9.638  10.882
   368G11  C02X24694  11.322   9.542  10.786
   368G11  C02Y24695  11.369   9.427  10.847
   368G11  H00824696  11.373   9.322  10.824
   368G11  C02Z24697  11.427   9.465  10.983
   368G11  O00424698  11.486   9.397  11.068
   368G11  O00324699  11.400   9.595  10.996
   368G11  C02J24700  11.164   9.663  10.664
   368G11  C01Z24701  10.937   9.540  10.397
   368G11  C02024702  10.923   9.418  10.334
   368G11  C01I24703  11.025   9.331  10.323
   368G11  C01H24704  11.016   9.193  10.294
   368G11  C00K24705  11.122   9.107  10.314
   368G11  C01S24706  11.235   9.151  10.373
   368G11  C01424707  11.322   9.068  10.440
   368G11  C00J24708  11.097   8.968  10.307
   368G11  C00I24709  10.973   8.927  10.264
   368G11  C00H24710  10.869   9.019  10.231
   368G11  C00G24711  10.745   8.971  10.192
   368G11  C00S24712  10.952   8.789  10.258
   368G11  C00T24713  10.833   8.757  10.211
   368G11  C00U24714  10.807   8.619  10.205
   368G11  C00R24715  11.046   8.694  10.298
   368G11  C00L24716  11.191   8.878  10.356
   368G11  C02824717  10.888   9.150  10.258
   368G11  C02324718  10.780   9.240  10.251
   368G11  C02424719  10.654   9.190  10.216
   368G11  C02124720  10.796   9.371  10.293
   368G11  C02224721  10.688   9.452  10.305
   368G11  C02H24722  10.559   9.401  10.273
   368G11  C03024723  10.446   9.483  10.295
   368G11  C03424724  10.465   9.612  10.330
   368G11  C02P24725  10.708   9.578  10.357
   368G11  C02B24726  10.830   9.623  10.410
   368G11  C01J24727  11.150   9.379  10.365
   368G11  C01X24728  11.260   9.553  10.663
   368G11  C01T24729  11.251   9.289  10.396
   368G11  H00924730  11.795   9.430  10.884
   368G11  C01P24731  11.621   9.208  10.690
   368G11  C01R24732  11.419   9.115  10.527
   368G11  C00Z24733  11.571   8.799  10.633
   368G11  O00024734  11.553   8.664  10.628
   368G11  C00M24735  11.294   8.927  10.433
   368G11  C00Y24736  11.448   8.613  10.553
   368G11  C01324737  11.434   8.478  10.531
   368G11  H00124738  11.503   8.409  10.579
   368G11  C00Q24739  11.167   8.738  10.348
   368G11  C00124740  11.326   8.426  10.455
   368G11  C00024741  11.310   8.289  10.427
   368G11  H00624742  11.385   8.218  10.459
   368G11  C00W24743  11.020   8.556  10.287
   368G11  C01G24744  11.201   8.233  10.366
   368G11  H00524745  11.200   8.125  10.366
   368G11  C01C24746  10.962   8.088  10.315
   368G11  H00224747  11.030   8.021  10.365
   368G11  C01B24748  10.842   8.045  10.262
   368G11  C01D24749  10.788   7.911  10.265
   368G11  H00324750  10.840   7.825  10.305
   368G11  C01E24751  10.658   7.900  10.222
   368G11  H00424752  10.602   7.808  10.231
   368G11  O00224753  10.586   8.003  10.175
   368G11  C01A24754  10.764   8.158  10.215
   368G11  C00V24755  10.893   8.520  10.232
   368G11  C01924756  10.633   8.135  10.166
   368G11  C02E24757  10.070   8.307  10.005
   368G11  C0FX24758   9.942   8.259   9.977
   368G11  C0FW24759   9.833   8.344   9.981
   368G11  C0GB24760   9.926   8.124   9.952
   368G11  C0G324761  10.085   8.446  10.027
   368G11  C07H24762   9.974   8.530  10.024
   368G11  C0GC24763  10.033   8.032   9.962
   368G11  C0G224764   9.800   8.089   9.908
   368G11  C0G124765   9.687   8.172   9.909
   368G11  C0FB24766   9.327   8.130   9.906
   368G11  C0F224767   9.348   8.401   9.977
   368G11  C0FY24768   9.704   8.303   9.950
   368G11  C0F524769   9.487   8.588  10.028
   368G11  C0FV24770   9.847   8.481  10.006
   368G11  C07924771   9.635   8.778  10.068
   368G11  C07A24772   9.782   8.963  10.116
   368G11  C06Y24773  10.031   9.065  10.144
   368G11  C07D24774   9.992   8.668  10.047
   368G11  C01F24775  10.212   8.496  10.054
   368G11  C00A24776  10.449   8.459  10.104
   368G11  C00X24777  10.685   8.574  10.161
   368G11  C00F24778  10.730   8.840  10.174
   368G11  C02924779  10.368   8.823  10.117
   368G11  C02524780  10.640   9.058  10.178
   368G11  C06U24781  10.274   9.036  10.148
   368G11  C02A24782  10.543   9.270  10.228
   368G11  C05Y24783  10.320   9.435  10.272
   368G11  C05Z24784  10.212   9.510  10.307
   368G11  C06024785  10.223   9.638  10.353
   368G11  C06224786  10.113   9.711  10.401
   368G11  C06T24787  10.160   9.116  10.166
   368G11  C06A24788  10.081   9.460  10.280
   368G11  C06Z24789   9.923   9.148  10.160
   368G11  C06Q24790   9.700   9.305  10.220
   368G11  C06824791   9.970   9.539  10.303
   368G11  C06724792   9.986   9.659  10.376
   368G11  C06324793   9.639   9.873  10.494
   368G11  C06C24794   9.518   9.929  10.550
   368G11  C06D24795   9.520  10.036  10.631
   368G11  C06E24796   9.414  10.082  10.710
   368G11  C07Q24797   9.296  10.029  10.693
   368G11  C07P24798   9.284   9.921  10.600
   368G11  C07T24799   9.159   9.873  10.569
   368G11  C07U24800   9.142   9.766  10.487
   368G11  C07V24801   9.014   9.719  10.462
   368G11  C08424802   8.907   9.786  10.520
   368G11  C08C24803   8.923   9.891  10.604
   368G11  C08B24804   8.814   9.944  10.670
   368G11  C08A24805   8.838  10.046  10.757
   368G11  C08924806   8.958  10.101  10.782
   368G11  C08824807   8.969  10.197  10.884
   368G11  C08724808   9.098  10.233  10.925
   368G11  C08624809   9.211  10.184  10.860
   368G11  C08X24810   8.862  10.256  10.948
   368G11  C08T24811   8.733  10.194  10.921
   368G11  C08D24812   9.065  10.043  10.726
   368G11  C08U24813   8.724  10.101  10.823
   368G11  C08V24814   8.601  10.050  10.808
   368G11  C0CY24815   8.578   9.944  10.724
   368G11  C0CX24816   8.447   9.897  10.721
   368G11  C0CW24817   8.425   9.786  10.644
   368G11  C0CV24818   8.533   9.737  10.565
   368G11  C0D424819   8.663   9.791  10.571
   368G11  C0CU24820   8.518   9.611  10.504
   368G11  C0CT24821   8.398   9.542  10.507
   368G11  C0CS24822   8.293   9.599  10.578
   368G11  C0D624823   8.629   9.564  10.437
   368G11  C0EC24824   8.757   9.616  10.438
   368G11  C07X24825   8.870   9.547  10.386
   368G11  C0DL24826   8.611   9.435  10.384
   368G11  C0DK24827   8.715   9.381  10.317
   368G11  C0DN24828   8.674   9.259  10.273
   368G11  C0D824829   8.496   9.355  10.386
   368G11  C08W24830   8.513  10.114  10.894
   368G11  C0CQ24831   8.376  10.069  10.888
   368G11  C09324832   8.686   9.895  10.656
   368G11  C09224833   8.779   9.735  10.504
   368G11  C08524834   9.051   9.939  10.633
   368G11  C07S24835   9.194  10.083  10.766
   368G11  C06F24836   9.429  10.190  10.799
   368G11  C07O24837   9.396   9.869  10.534
   368G11  C07N24838   9.380   9.760  10.453
   368G11  C05D24839   9.638  10.111  10.633
   368G11  C05C24840   9.652  10.214  10.719
   368G11  C05N24841   9.782  10.258  10.709
   368G11  C05M24842  10.059  10.023  10.592
   368G11  C05I24843  10.135   9.824  10.473
   368G11  C06124844  10.351   9.685  10.364
   368G11  C02Q24845  10.593   9.651  10.369
   368G11  C02O24846  10.838   9.733  10.496
   368G11  C03Q24847  10.535   9.931  10.551
   368G11  C03O24848  10.501  10.063  10.747
   368G11  C03L24849  10.724  10.169  11.003
   368G11  C02S24850  10.853   9.942  10.729
   368G11  C02T24851  11.070   9.939  10.894
   368G11  C03K24852  10.843  10.184  11.086
   368G11  C03I24853  11.178   9.947  10.979
   368G11  C03G24854  11.419   9.971  11.127
   368G11  H00D24855  11.513   9.984  11.179
   368G11  C03J24856  11.088  10.205  11.224
   368G11  C03W24857  11.127  10.381  11.439
   368G11  C04I24858  10.900  10.425  11.445
   368G11  C04K24859  10.672  10.554  11.529
   368G11  C04N24860  10.547  10.619  11.554
   368G11  C04X24861  10.303  10.643  11.525
   368G11  C05024862  10.055  10.666  11.487
   368G11  C05W24863  10.098  10.539  11.235
   368G11  C05S24864   9.628  10.583  11.292
   368G11  C05R24865   9.868  10.516  11.042
   368G11  C05O24866   9.811  10.355  10.809
   368G11  C05B24867   9.549  10.260  10.803
   368G11  C05A24868   9.532  10.484  11.095
   368G11  C07R24869   9.333  10.236  10.883
   368G11  C08N24870   9.110  10.331  11.023
   368G11  C08M24871   8.997  10.400  11.074
   368G11  C08L24872   9.012  10.491  11.179
   368G11  C09124873   9.497  10.528  11.225
   368G11  C09K24874   9.282  10.720  11.416
   368G11  H00M24875   9.360  10.793  11.399
   368G11  C08K24876   9.132  10.470  11.256
   368G11  C09J24877   9.144  10.751  11.466
   368G11  C09I24878   9.048  10.851  11.507
   368G11  C09L24879   9.063  10.982  11.573
   368G11  H00N24880   9.160  11.026  11.593
   368G11  C09Q24881   8.949  11.047  11.609
   368G11  H00O24882   8.955  11.146  11.651
   368G11  O00B24883   8.820  10.998  11.594
   368G11  C09G24884   8.800  10.874  11.520
   368G11  C09F24885   8.664  10.825  11.501
   368G11  O00A24886   8.557  10.882  11.563
   368G11  C09P24887   8.435  10.823  11.564
   368G11  H00P24888   8.357  10.871  11.621
   368G11  C09O24889   8.403  10.729  11.463
   368G11  C09D24890   8.498  10.699  11.361
   368G11  C09C24891   8.471  10.636  11.234
   368G11  C09N24892   8.361  10.552  11.189
   368G11  C09T24893   8.267  10.495  11.272
   368G11  C09S24894   8.213  10.572  11.374
   368G11  C0CP24895   8.072  10.549  11.364
   368G11  C0CN24896   8.036  10.470  11.260
   368G11  C0CO24897   7.900  10.454  11.228
   368G11  H01424898   7.867  10.395  11.144
   368G11  C0CZ24899   7.808  10.503  11.318
   368G11  H01524900   7.706  10.477  11.297
   368G11  C0D024901   7.850  10.567  11.442
   368G11  C0G524902   7.758  10.599  11.551
   368G11  H01F24903   7.655  10.573  11.573
   368G11  C0G424904   7.809  10.670  11.660
   368G11  H01G24905   7.733  10.695  11.734
   368G11  O00H24906   7.943  10.710  11.674
   368G11  C0D224907   8.029  10.678  11.566
   368G11  C09V24908   8.166  10.709  11.569
   368G11  H00Q24909   8.178  10.771  11.657
   368G11  C0D124910   7.987  10.604  11.459
   368G11  C09R24911   8.268  10.671  11.467
   368G11  C09H24912   8.914  10.795  11.494
   368G11  C09E24913   8.633  10.746  11.384
   368G11  C09B24914   8.564  10.629  11.135
   368G11  C08Z24915   8.899  10.573  11.201
   368G11  C08O24916   8.866  10.371  11.028
   368G11  C09A24917   8.531  10.548  11.028
   368G11  C08S24918   8.593  10.207  10.963
   368G11  C09924919   8.406  10.490  11.063
   368G11  C09U24920   8.161  10.412  11.212
   368G11  C0BO24921   7.929  10.032  11.058
   368G11  C0CL24922   8.278  10.126  10.979
   368G11  C0D324923   8.352   9.957  10.804
   368G11  C0D524924   8.307   9.719  10.647
   368G11  C0BR24925   8.009   9.890  10.882
   368G11  C0BQ24926   7.903   9.935  10.964
   368G11  C0BL24927   7.701  10.003  11.143
   368G11  C0AF24928   7.445   9.917  11.102
   368G11  C0BH24929   7.622   9.724  10.851
   368G11  C0BG24930   7.603   9.610  10.780
   368G11  C0BD24931   7.363   9.623  10.820
   368G11  C0AG24932   7.317   9.876  11.074
   368G11  C0AI24933   7.095   9.847  11.170
   368G11  C0AV24934   6.894   9.665  11.214
   368G11  C0BB24935   6.996   9.583  10.869
   368G11  O00C24936   6.789   9.464  11.134
   368G11  C0BC24937   6.968   9.457  10.812
   368G11  C0B924938   7.232   9.567  10.814
   368G11  O00E24939   7.315   9.246  10.664
   368G11  C0CA24940   7.412   9.177  10.614
   368G11  O00F24941   7.382   9.070  10.565
   368G11  C0BF24942   7.474   9.559  10.773
   368G11  C0C524943   7.535   9.239  10.615
   368G11  C0C424944   7.645   9.163  10.571
   368G11  H01124945   7.628   9.063  10.534
   368G11  C0C824946   7.707   9.545  10.722
   368G11  C0C224947   7.772   9.226  10.564
   368G11  C0C324948   7.890   9.164  10.507
   368G11  C0DY24949   7.900   9.032  10.462
   368G11  H01624950   7.825   8.954  10.468
   368G11  C0DX24951   8.042   9.014  10.436
   368G11  C0DW24952   8.090   8.880  10.418
   368G11  C0BY24953   7.942   9.540  10.663
   368G11  C0DB24954   8.013   9.230  10.493
   368G11  C0CC24955   8.178   9.532  10.594
   368G11  C0D724956   8.382   9.409  10.458
   368G11  C0DZ24957   8.113   9.143  10.452
   368G11  C0DM24958   8.538   9.233  10.316
   368G11  C0DQ24959   8.324   8.941  10.337
   368G11  C0DV24960   8.216   8.855  10.367
   368G11  C0E024961   8.026   8.748  10.431
   368G11  C0FO24962   8.090   8.470  10.235
   368G11  C0E324963   7.897   8.701  10.384
   368G11  H01724964   7.818   8.764  10.345
   368G11  C0GV24965   7.969   8.436  10.173
   368G11  C0ES24966   8.206   8.482  10.152
   368G11  C0GQ24967   8.068   8.319   9.844
   368G11  C0FJ24968   8.420   8.335   9.738
   368G11  C0ED24969   8.439   8.494   9.974
   368G11  C0ER24970   8.765   8.375   9.977
   368G11  C0EP24971   8.882   8.567  10.033
   368G11  C0E624972   8.526   8.680  10.141
   368G11  C0DE24973   8.663   8.957  10.176
   368G11  C0EA24974   9.006   8.780  10.092
   368G11  C0DF24975   8.752   9.061  10.143
   368G11  C08024976   9.106   9.092  10.164
   368G11  C0DO24977   8.770   9.186  10.206
   368G11  C0DJ24978   8.847   9.433  10.314
   368G11  C07K24979   9.208   9.340  10.237
   368G11  C07W24980   8.999   9.600  10.389
   368G11  C08324981   9.255   9.703  10.431
   368G11  C07J24982   9.339   9.398  10.254
   368G11  C06O24983   9.600   9.507  10.296
   368G11  C06M24984   9.497   9.698  10.404
   378G11  C07124985  10.152   4.923  14.027
   378G11  C07L24986  10.266   4.933  13.947
   378G11  C07M24987  10.334   4.813  13.913
   378G11  C07Y24988  10.453   4.821  13.832
   378G11  C08124989  10.498   4.945  13.783
   378G11  C08224990  10.616   4.941  13.695
   378G11  C0DI24991  10.680   5.054  13.620
   378G11  C0DH24992  10.645   5.190  13.605
   378G11  C0DG24993  10.754   5.259  13.536
   378G11  C0E924994  10.757   5.375  13.445
   378G11  C0E824995  10.866   5.341  13.350
   378G11  C0E724996  10.944   5.427  13.261
   378G11  C0EB24997  10.925   5.571  13.255
   378G11  C0EF24998  11.020   5.670  13.218
   378G11  C0EE24999  11.159   5.662  13.188
   378G11  C0FD25000  11.247   5.761  13.238
   378G11  C0FE25001  11.210   5.846  13.346
   378G11  H01B25002  11.121   5.829  13.405
   378G11  C0FF25003  11.287   5.959  13.375
   378G11  H01A25004  11.254   6.025  13.454
   378G11  C0FG25005  11.415   5.974  13.310
   378G11  H01825006  11.478   6.058  13.336
   378G11  C0FH25007  11.460   5.880  13.217
   378G11  C0FI25008  11.588   5.884  13.156
   378G11  H01925009  11.659   5.962  13.176
   378G11  O00K25010  11.635   5.791  13.067
   378G11  C0FL25011  11.538   5.704  13.021
   378G11  C0FK25012  11.411   5.685  13.074
   378G11  C0FM25013  11.320   5.579  13.036
   378G11  C0FN25014  11.360   5.499  12.926
   378G11  C0FP25015  11.494   5.514  12.880
   378G11  C0GO25016  11.541   5.431  12.781
   378G11  C0GN25017  11.676   5.424  12.742
   378G11  C0GR25018  11.761   5.532  12.783
   378G11  C0GS25019  11.896   5.547  12.744
   378G11  H01Q25020  11.957   5.628  12.780
   378G11  C0GT25021  11.943   5.446  12.651
   378G11  H01O25022  12.047   5.453  12.621
   378G11  C0GU25023  11.856   5.342  12.610
   378G11  H01P25024  11.899   5.263  12.550
   378G11  O00L25025  11.713   5.630  12.870
   378G11  C0GM25026  11.723   5.322  12.655
   378G11  C0GL25027  11.641   5.207  12.638
   378G11  H01R25028  11.679   5.127  12.576
   378G11  C0GK25029  11.501   5.218  12.674
   378G11  C0GP25030  11.383   5.131  12.670
   378G11  C0E225031  11.268   5.207  12.706
   378G11  C0E125032  11.179   5.111  12.768
   378G11  C0DU25033  11.122   5.129  12.897
   378G11  C0DT25034  11.090   5.249  12.966
   378G11  C0E425035  11.168   5.366  12.959
   378G11  C0E525036  11.130   5.442  13.072
   378G11  C0DS25037  11.030   5.243  13.095
   378G11  C0DR25038  11.014   5.120  13.158
   378G11  C0DD25039  10.971   5.094  13.286
   378G11  C0DC25040  10.994   4.945  13.306
   378G11  C0DP25041  11.058   4.884  13.188
   378G11  C0DA25042  11.101   4.740  13.171
   378G11  C0D925043  11.075   4.615  13.252
   378G11  C0CR25044  11.130   4.488  13.218
   378G11  C0C025045  11.212   4.474  13.111
   378G11  C0BZ25046  11.276   4.358  13.071
   378G11  C0C125047  11.371   4.356  12.966
   378G11  C0C725048  11.434   4.240  12.932
   378G11  C0C625049  11.526   4.238  12.823
   378G11  C0C925050  11.586   4.118  12.787
   378G11  C0B825051  11.675   4.119  12.677
   378G11  C0B725052  11.759   4.010  12.652
   378G11  C0B625053  11.860   3.987  12.547
   378G11  C0B525054  11.836   4.001  12.410
   378G11  H00Z25055  11.765   4.068  12.363
   378G11  C0B425056  11.909   3.896  12.346
   378G11  H01025057  11.903   3.875  12.241
   378G11  C0B325058  11.996   3.827  12.432
   378G11  C0AP25059  11.994   3.685  12.447
   378G11  C0AQ25060  11.965   3.667  12.582
   378G11  C0AR25061  11.912   3.545  12.625
   378G11  C0AS25062  11.840   3.549  12.739
   378G11  C0AT25063  11.790   3.665  12.791
   378G11  C0BA25064  11.825   3.786  12.738
   378G11  C0AU25065  11.677   3.664  12.875
   378G11  C0BE25066  11.618   3.779  12.912
   378G11  C0BI25067  11.503   3.772  12.989
   378G11  C0BJ25068  11.445   3.652  13.030
   378G11  C0BK25069  11.337   3.643  13.113
   378G11  C0BW25070  11.270   3.757  13.146
   378G11  C0BV25071  11.317   3.881  13.100
   378G11  C0BU25072  11.256   4.001  13.143
   378G11  C0BX25073  11.298   4.116  13.089
   378G11  C0BT25074  11.149   4.000  13.235
   378G11  C0CD25075  11.098   4.119  13.283
   378G11  C0CB25076  11.144   4.237  13.232
   378G11  C0CE25077  11.006   4.118  13.381
   378G11  C0CK25078  10.965   3.992  13.438
   378G11  C0BS25079  11.011   3.874  13.390
   378G11  C0CJ25080  10.968   3.749  13.448
   378G11  C0BP25081  11.018   3.629  13.388
   378G11  C0CI25082  10.978   3.502  13.430
   378G11  C0CH25083  11.010   3.397  13.341
   378G11  H01225084  10.949   3.309  13.359
   378G11  C0BN25085  11.115   3.400  13.250
   378G11  C0CG25086  11.163   3.281  13.190
   378G11  C0CF25087  11.111   3.153  13.227
   378G11  H01325088  11.035   3.151  13.304
   378G11  O00G25089  11.153   3.036  13.172
   378G11  C0AA25090  11.252   3.047  13.082
   378G11  C0A925091  11.300   2.923  13.045
   378G11  H00U25092  11.242   2.834  13.059
   378G11  C0A825093  11.395   2.918  12.946
   378G11  H00V25094  11.401   2.820  12.899
   378G11  C0A725095  11.465   3.034  12.900
   378G11  C0A625096  11.423   3.169  12.953
   378G11  C0A525097  11.476   3.295  12.926
   378G11  C0A425098  11.589   3.311  12.835
   378G11  C0A325099  11.653   3.235  12.726
   378G11  C0A225100  11.650   3.098  12.718
   378G11  C0A125101  11.742   3.022  12.630
   378G11  C0A025102  11.831   3.060  12.517
   378G11  C09Z25103  11.881   2.952  12.445
   378G11  C09Y25104  11.958   2.970  12.328
   378G11  H00Y25105  12.000   2.883  12.278
   378G11  C09X25106  11.987   3.101  12.287
   378G11  C09W25107  12.059   3.114  12.171
   378G11  H00R25108  12.075   3.028  12.107
   378G11  C0AX25109  12.104   3.240  12.127
   378G11  H00S25110  12.166   3.252  12.040
   378G11  C0AW25111  12.074   3.351  12.202
   378G11  H00T25112  12.119   3.443  12.168
   378G11  C0AN25113  12.002   3.340  12.327
   378G11  C0AO25114  11.980   3.449  12.416
   378G11  C0AM25115  11.957   3.212  12.371
   378G11  C0B225116  11.858   2.812  12.473
   378G11  O00D25117  11.902   2.718  12.413
   378G11  C0B125118  11.776   2.779  12.590
   378G11  H00W25119  11.744   2.676  12.601
   378G11  C0AL25120  11.878   3.193  12.489
   378G11  C0AK25121  11.864   3.307  12.567
   378G11  C0B025122  11.717   2.887  12.661
   378G11  C0AZ25123  11.620   2.881  12.767
   378G11  H00X25124  11.587   2.788  12.810
   378G11  C0AJ25125  11.766   3.314  12.677
   378G11  C0AH25126  11.661   3.429  12.845
   378G11  C0AE25127  11.434   3.413  12.993
   378G11  C0AD25128  11.323   3.405  13.073
   378G11  C0AY25129  11.575   3.009  12.803
   378G11  C0AB25130  11.316   3.167  13.045
   378G11  C0AC25131  11.264   3.284  13.097
   378G11  C0BM25132  11.165   3.523  13.221
   378G11  C0CM25133  10.902   3.490  13.551
   378G11  C09M25134  10.856   3.607  13.620
   378G11  C09825135  10.792   3.593  13.743
   378G11  C08R25136  10.700   3.674  13.824
   378G11  C08Q25137  10.661   3.629  13.954
   378G11  C08P25138  10.542   3.632  14.039
   378G11  C08Y25139  10.503   3.516  14.112
   378G11  C09725140  10.570   3.399  14.090
   378G11  C09625141  10.483   3.294  14.100
   378G11  C09025142  10.383   3.349  14.187
   378G11  C09525143  10.266   3.283  14.230
   378G11  C09425144  10.154   3.337  14.310
   378G11  C08J25145  10.110   3.476  14.320
   378G11  C08I25146   9.968   3.478  14.298
   378G11  C08H25147   9.922   3.610  14.253
   378G11  C08G25148  10.052   3.673  14.226
   378G11  C08F25149  10.100   3.809  14.191
   378G11  C08E25150  10.027   3.924  14.229
   378G11  C05925151   9.907   3.932  14.307
   378G11  C05825152   9.857   4.058  14.348
   378G11  C05725153   9.735   4.079  14.420
   378G11  C05625154   9.669   3.960  14.449
   378G11  C05525155   9.723   3.835  14.437
   378G11  C05425156   9.621   3.740  14.441
   378G11  C05325157   9.492   3.813  14.450
   378G11  C05225158   9.354   3.769  14.429
   378G11  C05125159   9.322   3.636  14.390
   378G11  C05U25160   9.415   3.528  14.345
   378G11  C05T25161   9.564   3.527  14.325
   378G11  C06K25162   9.593   3.386  14.326
   378G11  H00J25163   9.694   3.347  14.322
   378G11  C06L25164   9.479   3.304  14.330
   378G11  H00I25165   9.478   3.196  14.340
   378G11  C05V25166   9.369   3.397  14.340
   378G11  C06J25167   9.237   3.359  14.362
   378G11  H00K25168   9.213   3.254  14.364
   378G11  C05X25169   9.138   3.455  14.385
   378G11  C06I25170   9.002   3.430  14.396
   378G11  H00L25171   8.968   3.327  14.389
   378G11  C04Z25172   8.902   3.525  14.408
   378G11  C06H25173   8.765   3.488  14.419
   378G11  H00H25174   8.737   3.384  14.418
   378G11  C04Y25175   8.666   3.591  14.411
   378G11  C06G25176   8.527   3.554  14.403
   378G11  O00925177   8.480   3.445  14.384
   378G11  O00825178   8.434   3.647  14.400
   378G11  C04P25179   8.467   3.781  14.417
   378G11  C04J25180   8.372   3.893  14.419
   378G11  C04Q25181   8.229   3.892  14.422
   378G11  H00E25182   8.186   3.793  14.417
   378G11  C04M25183   8.148   4.008  14.429
   378G11  C04R25184   8.006   4.010  14.409
   378G11  H00F25185   7.960   3.912  14.411
   378G11  C04S25186   7.936   4.125  14.395
   378G11  H00G25187   7.829   4.128  14.382
   378G11  O00725188   7.998   4.246  14.408
   378G11  C03V25189   8.138   4.249  14.405
   378G11  C03U25190   8.196   4.375  14.405
   378G11  O00625191   8.112   4.481  14.389
   378G11  C03F25192   8.166   4.607  14.377
   378G11  C03E25193   8.305   4.629  14.396
   378G11  C03D25194   8.389   4.516  14.424
   378G11  C03C25195   8.526   4.536  14.437
   378G11  C03B25196   8.562   4.673  14.432
   378G11  C03A25197   8.700   4.699  14.451
   378G11  C03925198   8.793   4.596  14.463
   378G11  C03825199   8.924   4.668  14.467
   378G11  C03725200   8.889   4.803  14.454
   378G11  C03625201   8.983   4.895  14.471
   378G11  C02R25202   8.972   5.031  14.459
   378G11  C03525203   9.106   5.077  14.455
   378G11  C03R25204   9.197   4.973  14.461
   378G11  C03S25205   9.320   4.975  14.399
   378G11  C04925206   9.382   4.855  14.383
   378G11  C04825207   9.307   4.738  14.416
   378G11  C03P25208   9.163   4.733  14.450
   378G11  C04725209   9.387   4.627  14.406
   378G11  C04625210   9.349   4.499  14.447
   378G11  C04525211   9.225   4.448  14.483
   378G11  C03T25212   9.096   4.502  14.488
   378G11  C04425213   9.006   4.395  14.494
   378G11  C04325214   9.076   4.278  14.531
   378G11  C04225215   9.018   4.169  14.478
   378G11  C04125216   8.880   4.215  14.461
   378G11  C04025217   8.770   4.136  14.466
   378G11  C03Z25218   8.633   4.176  14.447
   378G11  C04H25219   8.560   4.050  14.437
   378G11  C04G25220   8.648   3.947  14.440
   378G11  C03N25221   8.556   4.296  14.435
   378G11  C03Y25222   8.417   4.275  14.425
   378G11  C03X25223   8.354   4.143  14.424
   378G11  C04F25224   8.778   3.991  14.450
   378G11  C04E25225   8.878   3.894  14.446
   378G11  C04O25226   8.836   3.759  14.432
   378G11  C04D25227   9.016   3.919  14.444
   378G11  C04V25228   9.113   3.819  14.428
   378G11  C04W25229   9.080   3.684  14.415
   378G11  C04C25230   9.084   4.037  14.463
   378G11  C04L25231   9.225   4.004  14.469
   378G11  C04U25232   9.329   4.090  14.522
   378G11  C05Q25233   9.464   4.068  14.498
   378G11  C05P25234   9.534   4.183  14.486
   378G11  C04T25235   9.443   4.285  14.484
   378G11  C04B25236   9.324   4.231  14.508
   378G11  C03M25237   8.866   4.366  14.470
   378G11  C04A25238   9.214   4.312  14.511
   378G11  C05H25239   9.460   4.424  14.452
   378G11  C05G25240   9.575   4.506  14.422
   378G11  C05F25241   9.702   4.452  14.402
   378G11  C05E25242   9.803   4.523  14.326
   378G11  C05L25243   9.829   4.659  14.269
   378G11  C05K25244   9.736   4.761  14.281
   378G11  C05J25245   9.596   4.755  14.327
   378G11  C06625246   9.781   4.883  14.230
   378G11  C06525247   9.903   4.896  14.163
   378G11  C06425248   9.991   4.789  14.153
   378G11  C06N25249   9.945   5.020  14.118
   378G11  C06925250   9.867   5.133  14.132
   378G11  C06P25251   9.903   5.258  14.076
   378G11  C06R25252   9.818   5.368  14.077
   378G11  C06B25253   9.696   5.355  14.135
   378G11  C06S25254   9.601   5.460  14.126
   378G11  C02G25255   9.484   5.454  14.191
   378G11  C02F25256   9.389   5.560  14.192
   378G11  C02725257   9.421   5.674  14.122
   378G11  C02625258   9.322   5.772  14.104
   378G11  C00E25259   9.345   5.868  14.006
   378G11  C00D25260   9.244   5.956  13.980
   378G11  C00C25261   9.267   6.058  13.887
   378G11  C00B25262   9.379   6.073  13.819
   378G11  C01525263   9.483   5.981  13.845
   378G11  C07F25264   9.593   5.986  13.763
   378G11  C07E25265   9.692   5.891  13.782
   378G11  C06W25266   9.675   5.790  13.878
   378G11  C06V25267   9.563   5.786  13.959
   378G11  C06X25268   9.772   5.690  13.893
   378G11  C07B25269   9.890   5.692  13.820
   378G11  C07C25270   9.905   5.791  13.723
   378G11  C0FU25271  10.020   5.792  13.645
   378G11  C0F725272  10.036   5.884  13.546
   378G11  C0F625273  10.151   5.885  13.471
   378G11  C0F825274  10.163   5.981  13.373
   378G11  C0F925275  10.282   5.990  13.302
   378G11  C0FA25276  10.300   6.093  13.213
   378G11  C0FZ25277  10.196   6.174  13.190
   378G11  C0G025278  10.213   6.284  13.099
   378G11  C0GD25279  10.338   6.319  13.041
   378G11  C0FC25280  10.449   6.241  13.074
   378G11  C0GH25281  10.581   6.279  13.046
   378G11  C0EY25282  10.688   6.198  13.095
   378G11  C0EX25283  10.819   6.238  13.073
   378G11  C0EW25284  10.921   6.155  13.124
   378G11  C0FR25285  11.053   6.200  13.122
   378G11  H01D25286  11.132   6.150  13.177
   378G11  C0FS25287  11.088   6.318  13.054
   378G11  H01C25288  11.186   6.362  13.043
   378G11  C0GJ25289  10.987   6.393  12.990
   378G11  H01N25290  11.009   6.485  12.938
   378G11  C0EV25291  10.890   6.025  13.167
   378G11  C0FT25292  10.989   5.924  13.169
   378G11  H01E25293  11.091   5.943  13.140
   378G11  C0EU25294  10.761   5.991  13.190
   378G11  C0ET25295  10.722   5.863  13.231
   378G11  C0EI25296  10.603   5.823  13.288
   378G11  C0F125297  10.505   5.917  13.271
   378G11  C0F025298  10.529   6.034  13.195
   378G11  C0EH25299  10.588   5.702  13.362
   378G11  C0EG25300  10.687   5.601  13.366
   378G11  C0EJ25301  10.475   5.699  13.438
   378G11  C0F325302  10.371   5.797  13.420
   378G11  C0EK25303  10.451   5.590  13.528
   378G11  C0EL25304  10.548   5.484  13.540
   378G11  C0EM25305  10.507   5.382  13.636
   378G11  C0EN25306  10.396   5.408  13.721
   378G11  C07I25307  10.367   5.294  13.793
   378G11  C07425308  10.255   5.283  13.871
   378G11  C07325309  10.227   5.159  13.927
   378G11  C07225310  10.110   5.153  14.001
   378G11  C07525311  10.172   5.393  13.876
   378G11  C07625312  10.200   5.506  13.793
   378G11  C07825313  10.102   5.601  13.767
   378G11  C07G25314  10.057   5.386  13.944
   378G11  C07025315   9.965   5.490  13.928
   378G11  C07Z25316  10.455   5.190  13.762
   378G11  C07725317  10.308   5.515  13.713
   378G11  C0EO25318  10.337   5.605  13.611
   378G11  C0F425319  10.239   5.700  13.594
   378G11  C0EQ25320  10.823   5.770  13.246
   378G11  C0FQ25321  10.850   6.358  13.007
   378G11  C0GI25322  10.742   6.435  12.960
   378G11  H01L25323  10.767   6.525  12.906
   378G11  C0EZ25324  10.659   6.077  13.158
   378G11  C0GG25325  10.608   6.399  12.979
   378G11  C0GF25326  10.491   6.465  12.926
   378G11  H01M25327  10.510   6.551  12.864
   378G11  C0GE25328  10.357   6.424  12.957
   378G11  H01K25329  10.269   6.476  12.923
   378G11  O00J25330  10.122   6.380  13.090
   378G11  C0GA25331  10.000   6.359  13.133
   378G11  C0G925332   9.897   6.444  13.099
   378G11  H01H25333   9.915   6.517  13.021
   378G11  C0G825334   9.769   6.431  13.157
   378G11  C0G725335   9.662   6.519  13.132
   378G11  H01I25336   9.683   6.608  13.074
   378G11  O00I25337   9.535   6.494  13.166
   378G11  C0G625338   9.528   6.419  13.279
   378G11  H01J25339   9.429   6.412  13.323
   378G11  C02D25340   9.636   6.336  13.328
   378G11  C02C25341   9.624   6.248  13.439
   378G11  C01725342   9.512   6.261  13.526
   378G11  C01625343   9.497   6.166  13.630
   378G11  O00125344   9.438   6.376  13.531
   378G11  C01825345   9.312   6.365  13.589
   378G11  C00925346   9.286   6.260  13.680
   378G11  C00825347   9.167   6.234  13.752
   378G11  C00725348   9.033   6.280  13.739
   378G11  C00625349   8.989   6.389  13.662
   378G11  C00525350   8.853   6.434  13.647
   378G11  C00425351   8.733   6.370  13.694
   378G11  C00325352   8.708   6.255  13.786
   378G11  C00225353   8.574   6.214  13.807
   378G11  C00P25354   8.544   6.105  13.896
   378G11  C00O25355   8.413   6.055  13.916
   378G11  C00N25356   8.383   5.950  14.003
   378G11  C01025357   8.252   5.899  14.009
   378G11  C01125358   8.224   5.786  14.085
   378G11  C01Q25359   8.090   5.732  14.085
   378G11  C01U25360   7.991   5.795  14.010
   378G11  C01225361   8.022   5.914  13.941
   378G11  H00025362   7.953   5.969  13.880
   378G11  C01V25363   7.860   5.742  14.019
   378G11  H00725364   7.778   5.801  13.979
   378G11  O00525365   7.831   5.622  14.078
   378G11  C01W25366   7.927   5.572  14.164
   378G11  C03125367   7.898   5.460  14.247
   378G11  C03225368   7.996   5.403  14.332
   378G11  H00A25369   7.971   5.317  14.393
   378G11  C03325370   8.122   5.463  14.339
   378G11  H00B25371   8.199   5.428  14.406
   378G11  C01O25372   8.161   5.569  14.250
   378G11  C01N25373   8.298   5.608  14.233
   378G11  C01M25374   8.414   5.534  14.292
   378G11  C01L25375   8.458   5.394  14.332
   378G11  C01K25376   8.592   5.407  14.362
   378G11  C01Y25377   8.685   5.303  14.378
   378G11  C02I25378   8.634   5.175  14.384
   378G11  C02N25379   8.725   5.077  14.419
   378G11  C02M25380   8.671   4.946  14.423
   378G11  C02L25381   8.535   4.919  14.398
   378G11  C02K25382   8.445   5.022  14.366
   378G11  C02U25383   8.311   4.993  14.342
   378G11  C02V25384   8.258   4.865  14.361
   378G11  C03H25385   8.116   4.837  14.346
   378G11  H00C25386   8.042   4.913  14.328
   378G11  C02W25387   8.232   5.085  14.275
   378G11  C02X25388   8.290   5.205  14.254
   378G11  C02Y25389   8.205   5.269  14.164
   378G11  H00825390   8.213   5.371  14.130
   378G11  C02Z25391   8.088   5.183  14.134
   378G11  O00425392   7.992   5.196  14.061
   378G11  O00325393   8.118   5.071  14.210
   378G11  C02J25394   8.495   5.154  14.357
   378G11  C01Z25395   8.816   5.346  14.395
   378G11  C02025396   8.860   5.473  14.358
   378G11  C01I25397   8.771   5.570  14.334
   378G11  C01H25398   8.793   5.682  14.258
   378G11  C00K25399   8.692   5.765  14.205
   378G11  C01S25400   8.559   5.729  14.227
   378G11  C01425401   8.456   5.775  14.150
   378G11  C00J25402   8.719   5.875  14.129
   378G11  C00I25403   8.849   5.902  14.100
   378G11  C00H25404   8.957   5.822  14.153
   378G11  C00G25405   9.092   5.841  14.117
   378G11  C00S25406   8.876   6.005  14.011
   378G11  C00T25407   9.011   6.020  13.990
   378G11  C00U25408   9.039   6.123  13.896
   378G11  C00R25409   8.778   6.079  13.947
   378G11  C00L25410   8.614   5.936  14.058
   378G11  C02825411   8.925   5.710  14.223
   378G11  C02325412   9.028   5.621  14.265
   378G11  C02425413   9.162   5.644  14.229
   378G11  C02125414   8.993   5.504  14.330
   378G11  C02225415   9.086   5.402  14.342
   378G11  C02H25416   9.222   5.427  14.300
   378G11  C03025417   9.316   5.323  14.310
   378G11  C03425418   9.275   5.202  14.363
   378G11  C02P25419   9.041   5.279  14.385
   378G11  C02B25420   8.907   5.248  14.408
   378G11  C01J25421   8.633   5.536  14.349
   378G11  C01X25422   8.410   5.260  14.312
   378G11  C01T25423   8.529   5.616  14.303
   378G11  H00925424   7.796   5.422  14.248
   378G11  C01P25425   8.058   5.625  14.171
   378G11  C01R25426   8.327   5.722  14.160
   378G11  C00Z25427   8.147   5.969  13.947
   378G11  O00025428   8.175   6.079  13.874
   378G11  C00M25429   8.485   5.887  14.074
   378G11  C00Y25430   8.308   6.122  13.852
   378G11  C01325431   8.339   6.232  13.772
   378G11  H00125432   8.256   6.294  13.742
   378G11  C00Q25433   8.642   6.042  13.969
   378G11  C00125434   8.467   6.282  13.745
   378G11  C00025435   8.495   6.390  13.656
   378G11  H00625436   8.417   6.452  13.614
   378G11  C00W25437   8.810   6.180  13.857
   378G11  C01G25438   8.624   6.423  13.628
   378G11  H00525439   8.640   6.496  13.550
   378G11  C01C25440   8.872   6.566  13.593
   378G11  H00225441   8.787   6.632  13.585
   378G11  C01B25442   9.011   6.596  13.579
   378G11  C01D25443   9.070   6.723  13.548
   378G11  H00325444   9.011   6.814  13.542
   378G11  C01E25445   9.203   6.715  13.521
   378G11  H00425446   9.263   6.802  13.497
   378G11  O00225447   9.275   6.598  13.516
   378G11  C01A25448   9.080   6.482  13.608
   378G11  C00V25449   8.952   6.206  13.827
   378G11  C01925450   9.224   6.478  13.572
   378G11  C02E25451   9.726   6.157  13.466
   378G11  C0FX25452   9.839   6.152  13.389
   378G11  C0FW25453   9.942   6.066  13.416
   378G11  C0GB25454   9.853   6.246  13.290
   378G11  C0G325455   9.716   6.069  13.573
   378G11  C07H25456   9.819   5.973  13.601
   378G11  C0GC25457   9.753   6.337  13.255
   378G11  C0G225458   9.977   6.255  13.223
   378G11  C0G125459  10.078   6.168  13.251
   378G11  C0FB25460  10.424   6.120  13.156
   378G11  C0F225461  10.386   5.899  13.330
   378G11  C0FY25462  10.059   6.071  13.345
   378G11  C0F525463  10.255   5.796  13.496
   378G11  C0FV25464   9.934   5.977  13.522
   378G11  C07925465  10.122   5.700  13.666
   378G11  C07A25466   9.988   5.599  13.846
   378G11  C06Y25467   9.752   5.577  13.977
   378G11  C07D25468   9.806   5.887  13.706
   378G11  C01F25469   9.601   6.072  13.654
   378G11  C00A25470   9.388   6.170  13.714
   378G11  C00X25471   9.164   6.141  13.855
   378G11  C00F25472   9.116   5.944  14.034
   378G11  C02925473   9.465   5.884  13.938
   378G11  C02525474   9.195   5.758  14.155
   378G11  C06U25475   9.539   5.679  14.048
   378G11  C02A25476   9.260   5.548  14.244
   378G11  C05Y25477   9.447   5.337  14.262
   378G11  C05Z25478   9.531   5.226  14.258
   378G11  C06025479   9.487   5.102  14.301
   378G11  C06225480   9.567   4.987  14.289
   378G11  C06T25481   9.632   5.575  14.054
   378G11  C06A25482   9.658   5.234  14.195
   378G11  C06Z25483   9.849   5.481  14.000
   378G11  C06Q25484  10.025   5.268  14.012
   378G11  C06825485   9.741   5.121  14.191
   378G11  C06725486   9.696   4.997  14.240
   378G11  C06325487   9.950   4.666  14.199
   378G11  C06C25488  10.028   4.550  14.164
   378G11  C06D25489   9.998   4.422  14.213
   378G11  C06E25490  10.064   4.299  14.180
   378G11  C07Q25491  10.179   4.308  14.104
   378G11  C07P25492  10.222   4.437  14.065
   378G11  C07T25493  10.332   4.452  13.984
   378G11  C07U25494  10.370   4.577  13.932
   378G11  C07V25495  10.477   4.580  13.844
   378G11  C08425496  10.541   4.468  13.801
   378G11  C08C25497  10.501   4.348  13.856
   378G11  C08B25498  10.567   4.232  13.819
   378G11  C08A25499  10.531   4.111  13.876
   378G11  C08925500  10.418   4.091  13.955
   378G11  C08825501  10.386   3.966  14.007
   378G11  C08725502  10.276   3.950  14.087
   378G11  C08625503  10.202   4.066  14.119
   378G11  C08X25504  10.459   3.853  13.970
   378G11  C08T25505  10.556   3.869  13.862
   378G11  C08D25506  10.356   4.206  13.993
   378G11  C08U25507  10.588   3.997  13.834
   378G11  C08V25508  10.682   4.001  13.736
   378G11  C0CY25509  10.727   4.118  13.681
   378G11  C0CX25510  10.826   4.111  13.584
   378G11  C0CW25511  10.865   4.234  13.532
   378G11  C0CV25512  10.814   4.353  13.578
   378G11  C0D425513  10.705   4.349  13.673
   378G11  C0CU25514  10.861   4.476  13.534
   378G11  C0CT25515  10.957   4.481  13.430
   378G11  C0CS25516  11.003   4.360  13.379
   378G11  C0D625517  10.804   4.583  13.593
   378G11  C0EC25518  10.698   4.587  13.682
   378G11  C07X25519  10.633   4.700  13.715
   378G11  C0DL25520  10.857   4.705  13.545
   378G11  C0DK25521  10.798   4.823  13.587
   378G11  C0DN25522  10.858   4.921  13.516
   378G11  C0D825523  10.947   4.725  13.439
   378G11  C08W25524  10.713   3.876  13.690
   378G11  C0CQ25525  10.829   3.866  13.600
   378G11  C09325526  10.666   4.231  13.726
   378G11  C09225527  10.648   4.468  13.714
   378G11  C08525528  10.392   4.334  13.946
   378G11  C07S25529  10.251   4.195  14.079
   378G11  C06F25530  10.022   4.173  14.222
   378G11  C07O25531  10.146   4.556  14.096
   378G11  C07N25532  10.192   4.682  14.049
   378G11  C05D25533   9.891   4.418  14.292
   378G11  C05C25534   9.851   4.294  14.338
   378G11  C05N25535   9.735   4.314  14.403
   378G11  C05M25536   9.531   4.633  14.378
   378G11  C05I25537   9.518   4.862  14.334
   378G11  C06125538   9.362   5.095  14.357
   378G11  C02Q25539   9.145   5.194  14.404
   378G11  C02O25540   8.860   5.119  14.429
   378G11  C03Q25541   9.115   4.860  14.472
   378G11  C03O25542   9.064   4.631  14.472
   378G11  C03L25543   8.755   4.458  14.461
   378G11  C02S25544   8.753   4.827  14.441
   378G11  C02T25545   8.483   4.785  14.403
   378G11  C03K25546   8.611   4.428  14.451
   378G11  C03I25547   8.348   4.761  14.385
   378G11  C03G25548   8.075   4.706  14.349
   378G11  H00D25549   7.971   4.682  14.331
   378G11  C03J25550   8.333   4.388  14.425
   378G11  C03W25551   8.215   4.131  14.426
   378G11  C04I25552   8.424   4.022  14.422
   378G11  C04K25553   8.597   3.816  14.428
   378G11  C04N25554   8.700   3.724  14.423
   378G11  C04X25555   8.939   3.661  14.413
   378G11  C05025556   9.183   3.593  14.400
   378G11  C05W25557   9.245   3.859  14.438
   378G11  C05S25558   9.659   3.640  14.350
   378G11  C05R25559   9.527   3.948  14.470
   378G11  C05O25560   9.667   4.201  14.442
   378G11  C05B25561   9.912   4.173  14.298
   378G11  C05A25562   9.821   3.816  14.340
   378G11  C07R25563  10.081   4.052  14.189
   378G11  C08N25564  10.231   3.822  14.131
   378G11  C08M25565  10.318   3.714  14.105
   378G11  C08L25566  10.285   3.595  14.170
   378G11  C09125567   9.799   3.680  14.301
   378G11  C09K25568   9.925   3.344  14.248
   378G11  H00M25569   9.834   3.337  14.191
   378G11  C08K25570  10.158   3.582  14.241
   378G11  C09J25571  10.039   3.256  14.272
   378G11  C09I25572  10.096   3.140  14.207
   378G11  C09L25573  10.037   3.010  14.200
   378G11  H00N25574   9.937   2.985  14.231
   378G11  C09Q25575  10.116   2.907  14.172
   378G11  H00O25576  10.063   2.814  14.155
   378G11  O00B25577  10.240   2.922  14.120
   378G11  C09G25578  10.304   3.048  14.120
   378G11  C09F25579  10.420   3.053  14.034
   378G11  O00A25580  10.445   2.945  13.962
   378G11  C09P25581  10.558   2.937  13.888
   378G11  H00P25582  10.562   2.851  13.822
   378G11  C09O25583  10.635   3.057  13.853
   378G11  C09D25584  10.610   3.175  13.927
   378G11  C09C25585  10.684   3.297  13.915
   378G11  C09N25586  10.768   3.350  13.806
   378G11  C09T25587  10.792   3.291  13.687
   378G11  C09S25588  10.816   3.156  13.693
   378G11  C0CP25589  10.948   3.137  13.645
   378G11  C0CN25590  11.007   3.259  13.603
   378G11  C0CO25591  11.147   3.255  13.557
   378G11  H01425592  11.202   3.342  13.522
   378G11  C0CZ25593  11.209   3.125  13.557
   378G11  H01525594  11.311   3.120  13.522
   378G11  C0D025595  11.141   3.005  13.605
   378G11  C0G525596  11.205   2.875  13.614
   378G11  H01F25597  11.307   2.862  13.582
   378G11  C0G425598  11.135   2.769  13.660
   378G11  H01G25599  11.187   2.674  13.663
   378G11  O00H25600  11.000   2.765  13.692
   378G11  C0D225601  10.945   2.891  13.694
   378G11  C09V25602  10.811   2.914  13.740
   378G11  H00Q25603  10.773   2.824  13.787
   378G11  C0D125604  11.013   3.010  13.653
   378G11  C09R25605  10.751   3.044  13.759
   378G11  C09H25606  10.235   3.152  14.187
   378G11  C09E25607  10.502   3.172  14.024
   378G11  C09B25608  10.679   3.401  14.002
   378G11  C08Z25609  10.380   3.487  14.159
   378G11  C08O25610  10.440   3.732  14.034
   378G11  C09A25611  10.751   3.519  13.968
   378G11  C08S25612  10.636   3.787  13.775
   378G11  C09925613  10.813   3.486  13.842
   378G11  C09U25614  10.899   3.355  13.604
   378G11  C0BO25615  11.117   3.641  13.285
   378G11  C0CL25616  10.876   3.739  13.555
   378G11  C0D325617  10.872   3.988  13.541
   378G11  C0D525618  10.955   4.235  13.426
   378G11  C0BR25619  11.110   3.876  13.293
   378G11  C0BQ25620  11.168   3.759  13.243
   378G11  C0BL25621  11.271   3.525  13.133
   378G11  C0AF25622  11.499   3.536  12.983
   378G11  C0BH25623  11.427   3.885  13.016
   378G11  C0BG25624  11.467   4.001  12.958
   378G11  C0BD25625  11.648   3.895  12.845
   378G11  C0AG25626  11.616   3.545  12.915
   378G11  C0AI25627  11.764   3.429  12.758
   378G11  C0AV25628  11.915   3.433  12.538
   378G11  C0BB25629  11.936   3.789  12.647
   378G11  O00C25630  12.011   3.576  12.366
   378G11  C0BC25631  11.969   3.892  12.559
   378G11  C0B925632  11.750   3.902  12.747
   378G11  O00E25633  11.684   4.230  12.603
   378G11  C0CA25634  11.622   4.343  12.628
   378G11  O00F25635  11.642   4.439  12.553
   378G11  C0BF25636  11.570   4.007  12.864
   378G11  C0C525637  11.540   4.348  12.745
   378G11  C0C425638  11.491   4.473  12.784
   378G11  H01125639  11.516   4.561  12.727
   378G11  C0C825640  11.407   4.118  13.001
   378G11  C0C225641  11.402   4.469  12.890
   378G11  C0C325642  11.332   4.579  12.933
   378G11  C0DY25643  11.335   4.708  12.877
   378G11  H01625644  11.377   4.736  12.782
   378G11  C0DX25645  11.242   4.795  12.951
   378G11  C0DW25646  11.181   4.910  12.886
   378G11  C0BY25647  11.243   4.238  13.133
   378G11  C0DB25648  11.245   4.587  13.042
   378G11  C0CC25649  11.100   4.364  13.280
   378G11  C0D725650  10.995   4.607  13.369
   378G11  C0DZ25651  11.188   4.715  13.063
   378G11  C0DM25652  10.963   4.872  13.429
   378G11  C0DQ25653  11.061   4.999  13.101
   378G11  C0DV25654  11.110   5.008  12.968
   378G11  C0E025655  11.227   4.980  12.762
   378G11  C0FO25656  11.319   5.320  12.768
   378G11  C0E325657  11.359   4.986  12.689
   378G11  H01725658  11.443   4.918  12.701
   378G11  C0GV25659  11.453   5.337  12.728
   378G11  C0ES25660  11.278   5.397  12.880
   378G11  C0GQ25661  11.585   5.616  12.922
   378G11  C0FJ25662  11.373   5.777  13.175
   378G11  C0ED25663  11.195   5.563  13.100
   378G11  C0ER25664  10.955   5.794  13.209
   378G11  C0EP25665  10.801   5.640  13.286
   378G11  C0E625666  11.028   5.374  13.151
   378G11  C0DE25667  10.911   5.201  13.372
   378G11  C0EA25668  10.663   5.488  13.446
   378G11  C0DF25669  10.855   5.170  13.505
   378G11  C08025670  10.548   5.253  13.671
   378G11  C0DO25671  10.806   5.046  13.545
   378G11  C0DJ25672  10.679   4.824  13.670
   378G11  C07K25673  10.423   5.056  13.814
   378G11  C07W25674  10.516   4.703  13.795
   378G11  C08325675  10.302   4.691  13.965
   378G11  C07J25676  10.309   5.050  13.894
   378G11  C06O25677  10.073   5.032  14.057
   378G11  C06M25678  10.114   4.796  14.074
   388G11  C07125679   1.046   0.507   7.912
   388G11  C07L25680   1.080   0.624   7.982
   388G11  C07M25681   1.202   0.685   7.964
   388G11  C07Y25682   1.235   0.802   8.037
   388G11  C08125683   1.141   0.867   8.120
   388G11  C08225684   1.178   0.987   8.188
   388G11  C0DI25685   1.101   1.084   8.270
   388G11  C0DH25686   0.971   1.089   8.315
   388G11  C0DG25687   0.943   1.211   8.380
   388G11  C0E925688   0.857   1.236   8.496
   388G11  C0E825689   0.934   1.347   8.564
   388G11  C0E725690   0.888   1.449   8.654
   388G11  C0EB25691   0.750   1.469   8.677
   388G11  C0EF25692   0.680   1.596   8.721
   388G11  C0EE25693   0.728   1.724   8.755
   388G11  C0FD25694   0.641   1.841   8.724
   388G11  C0FE25695   0.536   1.840   8.632
   388G11  H01B25696   0.516   1.750   8.577
   388G11  C0FF25697   0.445   1.946   8.622
   388G11  H01A25698   0.364   1.938   8.551
   388G11  C0FG25699   0.459   2.051   8.709
   388G11  H01825700   0.392   2.136   8.702
   388G11  C0FH25701   0.569   2.057   8.803
   388G11  C0FI25702   0.592   2.165   8.891
   388G11  H01925703   0.521   2.246   8.893
   388G11  O00K25704   0.688   2.167   8.989
   388G11  C0FL25705   0.775   2.067   8.991
   388G11  C0FK25706   0.770   1.954   8.900
   388G11  C0FM25707   0.855   1.841   8.917
   388G11  C0FN25708   0.961   1.855   9.007
   388G11  C0FP25709   0.964   1.967   9.098
   388G11  C0GO25710   1.070   1.991   9.185
   388G11  C0GN25711   1.082   2.102   9.266
   388G11  C0GR25712   0.974   2.190   9.272
   388G11  C0GS25713   0.972   2.299   9.363
   388G11  H01Q25714   0.889   2.368   9.353
   388G11  C0GT25715   1.085   2.323   9.447
   388G11  H01O25716   1.099   2.410   9.509
   388G11  C0GU25717   1.190   2.230   9.437
   388G11  H01P25718   1.270   2.245   9.508
   388G11  O00L25719   0.872   2.177   9.176
   388G11  C0GM25720   1.196   2.124   9.341
   388G11  C0GL25721   1.308   2.035   9.325
   388G11  H01R25722   1.406   2.052   9.366
   388G11  C0GK25723   1.294   1.917   9.242
   388G11  C0GP25724   1.376   1.805   9.185
   388G11  C0E225725   1.278   1.710   9.139
   388G11  C0E125726   1.343   1.632   9.041
   388G11  C0DU25727   1.293   1.584   8.917
   388G11  C0DT25728   1.161   1.576   8.872
   388G11  C0E425729   1.056   1.652   8.920
   388G11  C0E525730   0.951   1.633   8.834
   388G11  C0DS25731   1.117   1.513   8.759
   388G11  C0DR25732   1.227   1.464   8.684
   388G11  C0DD25733   1.211   1.403   8.563
   388G11  C0DC25734   1.355   1.381   8.515
   388G11  C0DP25735   1.457   1.438   8.609
   388G11  C0DA25736   1.606   1.451   8.600
   388G11  C0D925737   1.698   1.385   8.490
   388G11  C0CR25738   1.837   1.402   8.504
   388G11  C0C025739   1.898   1.479   8.600
   388G11  C0BZ25740   2.040   1.512   8.609
   388G11  C0C125741   2.085   1.594   8.708
   388G11  C0C725742   2.224   1.622   8.721
   388G11  C0C625743   2.274   1.701   8.825
   388G11  C0C925744   2.405   1.730   8.826
   388G11  C0B825745   2.455   1.800   8.936
   388G11  C0B725746   2.596   1.824   8.952
   388G11  C0B625747   2.676   1.905   9.048
   388G11  C0B525748   2.652   2.035   9.106
   388G11  H00Z25749   2.558   2.089   9.113
   388G11  C0B425750   2.782   2.107   9.135
   388G11  H01025751   2.793   2.208   9.171
   388G11  C0B325752   2.885   2.008   9.105
   388G11  C0AP25753   3.020   2.007   9.030
   388G11  C0AQ25754   3.005   1.893   8.946
   388G11  C0AR25755   3.084   1.868   8.833
   388G11  C0AS25756   3.025   1.793   8.745
   388G11  C0AT25757   2.893   1.752   8.740
   388G11  C0BA25758   2.815   1.786   8.848
   388G11  C0AU25759   2.838   1.697   8.630
   388G11  C0BE25760   2.699   1.675   8.630
   388G11  C0BI25761   2.653   1.608   8.518
   388G11  C0BJ25762   2.732   1.585   8.406
   388G11  C0BK25763   2.684   1.521   8.297
   388G11  C0BW25764   2.557   1.467   8.305
   388G11  C0BV25765   2.471   1.500   8.414
   388G11  C0BU25766   2.338   1.455   8.417
   388G11  C0BX25767   2.257   1.493   8.518
   388G11  C0BT25768   2.294   1.375   8.319
   388G11  C0CD25769   2.159   1.333   8.316
   388G11  C0CB25770   2.070   1.378   8.416
   388G11  C0CE25771   2.119   1.241   8.221
   388G11  C0CK25772   2.211   1.195   8.125
   388G11  C0BS25773   2.336   1.247   8.117
   388G11  C0CJ25774   2.430   1.194   8.019
   388G11  C0BP25775   2.552   1.264   8.003
   388G11  C0CI25776   2.641   1.221   7.903
   388G11  C0CH25777   2.747   1.310   7.877
   388G11  H01225778   2.805   1.290   7.788
   388G11  C0BN25779   2.794   1.400   7.978
   388G11  C0CG25780   2.929   1.449   7.970
   388G11  C0CF25781   3.022   1.424   7.858
   388G11  H01325782   2.979   1.374   7.772
   388G11  O00G25783   3.155   1.449   7.864
   388G11  C0AA25784   3.198   1.523   7.972
   388G11  C0A925785   3.332   1.564   7.963
   388G11  H00U25786   3.400   1.532   7.885
   388G11  C0A825787   3.385   1.643   8.066
   388G11  H00V25788   3.490   1.653   8.042
   388G11  C0A725789   3.311   1.682   8.180
   388G11  C0A625790   3.170   1.639   8.187
   388G11  C0A525791   3.086   1.663   8.288
   388G11  C0A425792   3.128   1.726   8.410
   388G11  C0A325793   3.238   1.808   8.459
   388G11  C0A225794   3.361   1.822   8.393
   388G11  C0A125795   3.465   1.903   8.448
   388G11  C0A025796   3.489   1.981   8.573
   388G11  C09Z25797   3.613   2.049   8.577
   388G11  C09Y25798   3.649   2.134   8.681
   388G11  H00Y25799   3.741   2.192   8.686
   388G11  C09X25800   3.560   2.137   8.794
   388G11  C09W25801   3.603   2.217   8.907
   388G11  H00R25802   3.697   2.268   8.896
   388G11  C0AX25803   3.526   2.243   9.013
   388G11  H00S25804   3.545   2.316   9.091
   388G11  C0AW25805   3.398   2.184   9.014
   388G11  H00T25806   3.332   2.212   9.094
   388G11  C0AN25807   3.356   2.091   8.910
   388G11  C0AO25808   3.225   2.037   8.913
   388G11  C0AM25809   3.437   2.071   8.795
   388G11  C0B225810   3.716   2.044   8.473
   388G11  O00D25811   3.826   2.096   8.483
   388G11  C0B125812   3.695   1.966   8.355
   388G11  H00W25813   3.768   1.937   8.280
   388G11  C0AL25814   3.395   1.993   8.682
   388G11  C0AK25815   3.273   1.929   8.697
   388G11  C0B025816   3.572   1.900   8.351
   388G11  C0AZ25817   3.526   1.813   8.241
   388G11  H00X25818   3.579   1.796   8.148
   388G11  C0AJ25819   3.217   1.847   8.592
   388G11  C0AH25820   3.045   1.717   8.521
   388G11  C0AE25821   2.955   1.608   8.293
   388G11  C0AD25822   2.899   1.546   8.185
   388G11  C0AY25823   3.393   1.765   8.267
   388G11  C0AB25824   3.114   1.567   8.075
   388G11  C0AC25825   2.979   1.519   8.075
   388G11  C0BM25826   2.718   1.423   8.087
   388G11  C0CM25827   2.624   1.090   7.846
   388G11  C09M25828   2.494   1.035   7.840
   388G11  C09825829   2.472   0.959   7.713
   388G11  C08R25830   2.364   0.864   7.683
   388G11  C08Q25831   2.373   0.798   7.562
   388G11  C08P25832   2.325   0.671   7.503
   388G11  C08Y25833   2.408   0.607   7.404
   388G11  C09725834   2.546   0.638   7.404
   388G11  C09625835   2.625   0.529   7.399
   388G11  C09025836   2.543   0.427   7.360
   388G11  C09525837   2.577   0.287   7.346
   388G11  C09425838   2.488   0.176   7.305
   388G11  C08J25839   2.345   0.176   7.299
   388G11  C08I25840   2.303   0.046   7.341
   388G11  C08H25841   2.169   0.044   7.396
   388G11  C08G25842   2.141   0.190   7.419
   388G11  C08F25843   2.028   0.274   7.456
   388G11  C08E25844   1.897   0.218   7.455
   388G11  C05925845   1.847   0.099   7.389
   388G11  C05825846   1.709   0.068   7.379
   388G11  C05725847   1.650  -0.042   7.317
   388G11  C05625848   1.747  -0.124   7.252
   388G11  C05525849   1.882  -0.098   7.248
   388G11  C05425850   1.959  -0.213   7.217
   388G11  C05325851   1.857  -0.319   7.229
   388G11  C05225852   1.878  -0.459   7.243
   388G11  C05125853   2.017  -0.505   7.239
   388G11  C05U25854   2.148  -0.430   7.242
   388G11  C05T25855   2.183  -0.289   7.270
   388G11  C06K25856   2.308  -0.279   7.202
   388G11  H00J25857   2.346  -0.179   7.189
   388G11  C06L25858   2.365  -0.400   7.159
   388G11  H00I25859   2.462  -0.416   7.115
   388G11  C05V25860   2.259  -0.494   7.191
   388G11  C06J25861   2.269  -0.628   7.182
   388G11  H00K25862   2.363  -0.674   7.154
   388G11  C05X25863   2.159  -0.712   7.216
   388G11  C06I25864   2.165  -0.854   7.207
   388G11  H00L25865   2.261  -0.890   7.173
   388G11  C04Z25866   2.059  -0.939   7.235
   388G11  C06H25867   2.063  -1.081   7.217
   388G11  H00H25868   2.160  -1.111   7.183
   388G11  C04Y25869   1.951  -1.165   7.246
   388G11  C06G25870   1.963  -1.309   7.228
   388G11  O00925871   2.067  -1.371   7.193
   388G11  O00825872   1.849  -1.387   7.257
   388G11  C04P25873   1.729  -1.331   7.288
   388G11  C04J25874   1.608  -1.410   7.322
   388G11  C04Q25875   1.591  -1.548   7.312
   388G11  H00E25876   1.676  -1.603   7.273
   388G11  C04M25877   1.468  -1.611   7.349
   388G11  C04R25878   1.447  -1.751   7.363
   388G11  H00F25879   1.529  -1.819   7.341
   388G11  C04S25880   1.338  -1.790   7.424
   388G11  H00G25881   1.318  -1.895   7.438
   388G11  O00725882   1.240  -1.712   7.472
   388G11  C03V25883   1.246  -1.577   7.451
   388G11  C03U25884   1.143  -1.501   7.496
   388G11  O00625885   1.045  -1.566   7.561
   388G11  C03F25886   0.945  -1.491   7.605
   388G11  C03E25887   0.927  -1.354   7.582
   388G11  C03D25888   1.033  -1.289   7.518
   388G11  C03C25889   1.029  -1.153   7.500
   388G11  C03B25890   0.912  -1.093   7.541
   388G11  C03A25891   0.910  -0.952   7.521
   388G11  C03925892   1.014  -0.873   7.461
   388G11  C03825893   0.958  -0.735   7.471
   388G11  C03725894   0.831  -0.753   7.532
   388G11  C03625895   0.744  -0.651   7.542
   388G11  C02R25896   0.619  -0.648   7.603
   388G11  C03525897   0.601  -0.503   7.618
   388G11  C03R25898   0.698  -0.428   7.557
   388G11  C03S25899   0.732  -0.297   7.602
   388G11  C04925900   0.857  -0.250   7.566
   388G11  C04825901   0.945  -0.347   7.506
   388G11  C03P25902   0.925  -0.490   7.483
   388G11  C04725903   1.069  -0.281   7.470
   388G11  C04625904   1.173  -0.338   7.390
   388G11  C04525905   1.200  -0.472   7.360
   388G11  C03T25906   1.130  -0.594   7.380
   388G11  C04425907   1.214  -0.702   7.350
   388G11  C04325908   1.328  -0.644   7.279
   388G11  C04225909   1.439  -0.731   7.300
   388G11  C04125910   1.380  -0.854   7.349
   388G11  C04025911   1.448  -0.970   7.382
   388G11  C03Z25912   1.391  -1.101   7.400
   388G11  C04H25913   1.500  -1.192   7.370
   388G11  C04G25914   1.608  -1.123   7.341
   388G11  C03N25915   1.263  -1.162   7.427
   388G11  C03Y25916   1.260  -1.297   7.431
   388G11  C03X25917   1.371  -1.381   7.398
   388G11  C04F25918   1.585  -0.991   7.345
   388G11  C04E25919   1.691  -0.903   7.314
   388G11  C04O25920   1.819  -0.960   7.291
   388G11  C04D25921   1.692  -0.764   7.313
   388G11  C04V25922   1.802  -0.687   7.283
   388G11  C04W25923   1.933  -0.740   7.265
   388G11  C04C25924   1.578  -0.679   7.311
   388G11  C04L25925   1.628  -0.543   7.279
   388G11  C04U25926   1.556  -0.430   7.242
   388G11  C05Q25927   1.602  -0.299   7.230
   388G11  C05P25928   1.499  -0.211   7.265
   388G11  C04T25929   1.383  -0.281   7.295
   388G11  C04B25930   1.419  -0.410   7.272
   388G11  C03M25931   1.237  -0.843   7.377
   388G11  C04A25932   1.321  -0.509   7.297
   388G11  C05H25933   1.261  -0.238   7.358
   388G11  C05G25934   1.213  -0.117   7.419
   388G11  C05F25935   1.278   0.009   7.409
   388G11  C05E25936   1.268   0.104   7.513
   388G11  C05L25937   1.171   0.142   7.615
   388G11  C05K25938   1.052   0.069   7.643
   388G11  C05J25939   1.014  -0.062   7.590
   388G11  C06625940   0.959   0.134   7.731
   388G11  C06525941   0.987   0.260   7.783
   388G11  C06425942   1.108   0.323   7.767
   388G11  C06N25943   0.893   0.322   7.867
   388G11  C06925944   0.770   0.263   7.895
   388G11  C06P25945   0.682   0.320   7.985
   388G11  C06R25946   0.567   0.248   8.033
   388G11  C06B25947   0.546   0.123   7.982
   388G11  C06S25948   0.437   0.050   8.034
   388G11  C02G25949   0.411  -0.075   7.989
   388G11  C02F25950   0.315  -0.157   8.049
   388G11  C02725951   0.242  -0.101   8.154
   388G11  C02625952   0.153  -0.184   8.227
   388G11  C00E25953   0.088  -0.140   8.340
   388G11  C00D25954   0.014  -0.228   8.416
   388G11  C00C25955  -0.043  -0.176   8.527
   388G11  C00B25956  -0.039  -0.053   8.574
   388G11  C01525957   0.048   0.033   8.506
   388G11  C07F25958   0.066   0.163   8.548
   388G11  C07E25959   0.149   0.243   8.477
   388G11  C06W25960   0.220   0.195   8.367
   388G11  C06V25961   0.194   0.069   8.318
   388G11  C06X25962   0.316   0.275   8.304
   388G11  C07B25963   0.350   0.395   8.356
   388G11  C07C25964   0.271   0.451   8.458
   388G11  C0FU25965   0.296   0.579   8.507
   388G11  C0F725966   0.222   0.628   8.614
   388G11  C0F625967   0.248   0.753   8.659
   388G11  C0F825968   0.168   0.808   8.752
   388G11  C0F925969   0.185   0.944   8.797
   388G11  C0FA25970   0.104   0.997   8.897
   388G11  C0FZ25971   0.011   0.916   8.952
   388G11  C0G025972  -0.074   0.973   9.053
   388G11  C0GD25973  -0.067   1.103   9.091
   388G11  C0FC25974   0.030   1.188   9.030
   388G11  C0GH25975   0.041   1.324   9.062
   388G11  C0EY25976   0.136   1.402   8.998
   388G11  C0EX25977   0.137   1.540   9.018
   388G11  C0EW25978   0.233   1.620   8.961
   388G11  C0FR25979   0.232   1.760   8.971
   388G11  H01D25980   0.299   1.833   8.927
   388G11  C0FS25981   0.142   1.827   9.054
   388G11  H01C25982   0.151   1.933   9.071
   388G11  C0GJ25983   0.053   1.739   9.120
   388G11  H01N25984  -0.014   1.775   9.196
   388G11  C0EV25985   0.341   1.558   8.890
   388G11  C0FT25986   0.458   1.626   8.844
   388G11  H01E25987   0.464   1.730   8.869
   388G11  C0EU25988   0.330   1.419   8.858
   388G11  C0ET25989   0.426   1.357   8.776
   388G11  C0EI25990   0.418   1.223   8.736
   388G11  C0F125991   0.308   1.152   8.785
   388G11  C0F025992   0.216   1.210   8.874
   388G11  C0EH25993   0.511   1.173   8.647
   388G11  C0EG25994   0.632   1.239   8.609
   388G11  C0EJ25995   0.491   1.040   8.604
   388G11  C0F325996   0.382   0.963   8.658
   388G11  C0EK25997   0.573   0.982   8.505
   388G11  C0EL25998   0.694   1.048   8.467
   388G11  C0EM25999   0.760   0.977   8.359
   388G11  C0EN26000   0.714   0.863   8.311
   388G11  C07I26001   0.797   0.805   8.219
   388G11  C07426002   0.768   0.681   8.156
   388G11  C07326003   0.864   0.623   8.077
   388G11  C07226004   0.832   0.503   8.009
   388G11  C07526005   0.652   0.622   8.189
   388G11  C07626006   0.571   0.672   8.291
   388G11  C07826007   0.467   0.604   8.344
   388G11  C07G26008   0.627   0.494   8.141
   388G11  C07026009   0.519   0.423   8.190
   388G11  C07Z26010   0.913   0.875   8.209
   388G11  C07726011   0.601   0.796   8.349
   388G11  C0EO26012   0.532   0.854   8.448
   388G11  C0F426013   0.426   0.780   8.502
   388G11  C0EQ26014   0.536   1.426   8.732
   388G11  C0FQ26015   0.039   1.601   9.099
   388G11  C0GI26016  -0.046   1.519   9.169
   388G11  H01L26017  -0.108   1.559   9.248
   388G11  C0EZ26018   0.227   1.343   8.909
   388G11  C0GG26019  -0.051   1.382   9.150
   388G11  C0GF26020  -0.138   1.296   9.218
   388G11  H01M26021  -0.208   1.335   9.290
   388G11  C0GE26022  -0.151   1.162   9.187
   388G11  H01K26023  -0.225   1.115   9.249
   388G11  O00J26024  -0.167   0.897   9.118
   388G11  C0GA26025  -0.189   0.771   9.076
   388G11  C0G926026  -0.289   0.691   9.132
   388G11  H01H26027  -0.361   0.736   9.198
   388G11  C0G826028  -0.306   0.554   9.105
   388G11  C0G726029  -0.412   0.467   9.151
   388G11  H01I26030  -0.492   0.513   9.207
   388G11  O00I26031  -0.417   0.334   9.129
   388G11  C0G626032  -0.354   0.296   9.016
   388G11  H01J26033  -0.394   0.212   8.961
   388G11  C02D26034  -0.241   0.367   8.964
   388G11  C02C26035  -0.153   0.308   8.867
   388G11  C01726036  -0.169   0.167   8.838
   388G11  C01626037  -0.094   0.119   8.730
   388G11  O00126038  -0.236   0.075   8.914
   388G11  C01826039  -0.262  -0.053   8.877
   388G11  C00926040  -0.196  -0.102   8.765
   388G11  C00826041  -0.197  -0.235   8.705
   388G11  C00726042  -0.267  -0.359   8.737
   388G11  C00626043  -0.341  -0.375   8.855
   388G11  C00526044  -0.391  -0.502   8.891
   388G11  C00426045  -0.382  -0.631   8.827
   388G11  C00326046  -0.312  -0.681   8.705
   388G11  C00226047  -0.305  -0.821   8.677
   388G11  C00P26048  -0.254  -0.873   8.551
   388G11  C00O26049  -0.234  -1.010   8.532
   388G11  C00N26050  -0.165  -1.059   8.421
   388G11  C01026051  -0.139  -1.192   8.411
   388G11  C01126052  -0.056  -1.244   8.309
   388G11  C01Q26053  -0.012  -1.376   8.313
   388G11  C01U26054  -0.062  -1.469   8.411
   388G11  C01226055  -0.148  -1.413   8.511
   388G11  H00026056  -0.187  -1.472   8.593
   388G11  C01V26057  -0.020  -1.604   8.403
   388G11  H00726058  -0.065  -1.673   8.473
   388G11  O00526059   0.073  -1.653   8.316
   388G11  C01W26060   0.115  -1.565   8.216
   388G11  C03126061   0.194  -1.618   8.110
   388G11  C03226062   0.206  -1.540   7.995
   388G11  H00A26063   0.259  -1.585   7.913
   388G11  C03326064   0.154  -1.408   7.986
   388G11  H00B26065   0.175  -1.348   7.898
   388G11  C01O26066   0.100  -1.346   8.096
   388G11  C01N26067   0.084  -1.208   8.105
   388G11  C01M26068   0.153  -1.110   8.016
   388G11  C01L26069   0.267  -1.095   7.922
   388G11  C01K26070   0.259  -0.961   7.879
   388G11  C01Y26071   0.363  -0.886   7.817
   388G11  C02I26072   0.473  -0.953   7.768
   388G11  C02N26073   0.567  -0.876   7.688
   388G11  C02M26074   0.684  -0.942   7.637
   388G11  C02L26075   0.697  -1.082   7.654
   388G11  C02K26076   0.596  -1.154   7.730
   388G11  C02U26077   0.619  -1.294   7.762
   388G11  C02V26078   0.722  -1.361   7.701
   388G11  C03H26079   0.730  -1.507   7.703
   388G11  H00C26080   0.656  -1.573   7.746
   388G11  C02W26081   0.555  -1.358   7.863
   388G11  C02X26082   0.459  -1.280   7.927
   388G11  C02Y26083   0.434  -1.360   8.040
   388G11  H00826084   0.373  -1.330   8.124
   388G11  C02Z26085   0.509  -1.488   8.043
   388G11  O00426086   0.498  -1.578   8.119
   388G11  O00326087   0.581  -1.477   7.923
   388G11  C02J26088   0.485  -1.091   7.790
   388G11  C01Z26089   0.352  -0.751   7.825
   388G11  C02026090   0.259  -0.686   7.912
   388G11  C01I26091   0.155  -0.755   7.970
   388G11  C01H26092   0.085  -0.708   8.078
   388G11  C00K26093   0.013  -0.799   8.156
   388G11  C01S26094   0.012  -0.934   8.136
   388G11  C01426095  -0.035  -1.023   8.228
   388G11  C00J26096  -0.053  -0.754   8.270
   388G11  C00I26097  -0.046  -0.618   8.300
   388G11  C00H26098   0.039  -0.534   8.228
   388G11  C00G26099   0.062  -0.409   8.267
   388G11  C00S26100  -0.104  -0.573   8.416
   388G11  C00T26101  -0.077  -0.445   8.441
   388G11  C00U26102  -0.145  -0.395   8.551
   388G11  C00R26103  -0.185  -0.653   8.498
   388G11  C00L26104  -0.117  -0.837   8.357
   388G11  C02826105   0.098  -0.579   8.111
   388G11  C02326106   0.190  -0.498   8.042
   388G11  C02426107   0.207  -0.368   8.080
   388G11  C02126108   0.269  -0.553   7.945
   388G11  C02226109   0.364  -0.473   7.881
   388G11  C02H26110   0.375  -0.338   7.911
   388G11  C03026111   0.463  -0.255   7.840
   388G11  C03426112   0.546  -0.315   7.747
   388G11  C02P26113   0.441  -0.532   7.784
   388G11  C02B26114   0.443  -0.674   7.759
   388G11  C01J26115   0.150  -0.894   7.942
   388G11  C01X26116   0.396  -1.162   7.884
   388G11  C01T26117   0.091  -0.981   8.031
   388G11  H00926118   0.234  -1.719   8.108
   388G11  C01P26119   0.072  -1.426   8.212
   388G11  C01R26120   0.001  -1.159   8.212
   388G11  C00Z26121  -0.183  -1.279   8.511
   388G11  O00026122  -0.257  -1.237   8.617
   388G11  C00M26123  -0.111  -0.978   8.333
   388G11  C00Y26124  -0.271  -1.102   8.633
   388G11  C01326125  -0.329  -1.049   8.748
   388G11  H00126126  -0.355  -1.114   8.830
   388G11  C00Q26127  -0.194  -0.788   8.461
   388G11  C00126128  -0.351  -0.916   8.774
   388G11  C00026129  -0.419  -0.868   8.886
   388G11  H00626130  -0.457  -0.939   8.959
   388G11  C00W26131  -0.246  -0.600   8.616
   388G11  C01G26132  -0.444  -0.730   8.902
   388G11  H00526133  -0.496  -0.703   8.993
   388G11  C01C26134  -0.462  -0.473   9.018
   388G11  H00226135  -0.515  -0.537   9.088
   388G11  C01B26136  -0.461  -0.333   9.036
   388G11  C01D26137  -0.527  -0.257   9.136
   388G11  H00326138  -0.595  -0.300   9.208
   388G11  C01E26139  -0.504  -0.124   9.134
   388G11  H00426140  -0.561  -0.064   9.203
   388G11  O00226141  -0.408  -0.063   9.052
   388G11  C01A26142  -0.375  -0.273   8.946
   388G11  C00V26143  -0.233  -0.462   8.640
   388G11  C01926144  -0.348  -0.136   8.955
   388G11  C02E26145  -0.066   0.389   8.798
   388G11  C0FX26146  -0.054   0.521   8.837
   388G11  C0FW26147   0.049   0.601   8.774
   388G11  C0GB26148  -0.125   0.577   8.941
   388G11  C0G326149   0.005   0.338   8.693
   388G11  C07H26150   0.100   0.419   8.629
   388G11  C0GC26151  -0.226   0.500   9.006
   388G11  C0G226152  -0.104   0.710   8.973
   388G11  C0G126153  -0.009   0.785   8.914
   388G11  C0FB26154   0.119   1.130   8.936
   388G11  C0F226155   0.290   1.020   8.745
   388G11  C0FY26156   0.067   0.733   8.808
   388G11  C0F526157   0.359   0.831   8.609
   388G11  C0FV26158   0.126   0.546   8.675
   388G11  C07926159   0.395   0.653   8.448
   388G11  C07A26160   0.447   0.474   8.298
   388G11  C06Y26161   0.390   0.225   8.191
   388G11  C07D26162   0.178   0.371   8.522
   388G11  C01F26163  -0.006   0.207   8.658
   388G11  C00A26164  -0.111  -0.013   8.686
   388G11  C00X26165  -0.121  -0.269   8.600
   388G11  C00F26166   0.000  -0.360   8.376
   388G11  C02926167   0.108  -0.009   8.386
   388G11  C02526168   0.142  -0.318   8.194
   388G11  C06U26169   0.266   0.025   8.203
   388G11  C02A26170   0.301  -0.287   8.012
   388G11  C05Y26171   0.489  -0.126   7.885
   388G11  C05Z26172   0.599  -0.057   7.835
   388G11  C06026173   0.685  -0.116   7.742
   388G11  C06226174   0.806  -0.054   7.702
   388G11  C06T26175   0.361   0.101   8.140
   388G11  C06A26176   0.629   0.071   7.881
   388G11  C06Z26177   0.493   0.298   8.139
   388G11  C06Q26178   0.715   0.439   8.046
   388G11  C06826179   0.744   0.139   7.842
   388G11  C06726180   0.835   0.073   7.752
   388G11  C06326181   1.206   0.259   7.687
   388G11  C06C26182   1.328   0.323   7.676
   388G11  C06D26183   1.432   0.269   7.607
   388G11  C06E26184   1.561   0.325   7.584
   388G11  C07Q26185   1.592   0.433   7.653
   388G11  C07P26186   1.493   0.496   7.729
   388G11  C07T26187   1.522   0.607   7.801
   388G11  C07U26188   1.431   0.670   7.878
   388G11  C07V26189   1.463   0.785   7.949
   388G11  C08426190   1.593   0.824   7.950
   388G11  C08C26191   1.690   0.752   7.885
   388G11  C08B26192   1.823   0.793   7.893
   388G11  C08A26193   1.916   0.734   7.810
   388G11  C08926194   1.883   0.641   7.716
   388G11  C08826195   1.985   0.591   7.636
   388G11  C08726196   1.956   0.475   7.566
   388G11  C08626197   1.827   0.419   7.567
   388G11  C08X26198   2.115   0.644   7.631
   388G11  C08T26199   2.151   0.747   7.728
   388G11  C08D26200   1.752   0.596   7.715
   388G11  C08U26201   2.044   0.789   7.807
   388G11  C08V26202   2.084   0.892   7.887
   388G11  C0CY26203   1.990   0.953   7.974
   388G11  C0CX26204   2.037   1.052   8.049
   388G11  C0CW26205   1.945   1.111   8.137
   388G11  C0CV26206   1.809   1.071   8.132
   388G11  C0D426207   1.767   0.966   8.046
   388G11  C0CU26208   1.716   1.129   8.217
   388G11  C0CT26209   1.756   1.225   8.311
   388G11  C0CS26210   1.895   1.256   8.320
   388G11  C0D626211   1.589   1.085   8.204
   388G11  C0EC26212   1.542   0.990   8.112
   388G11  C07X26213   1.406   0.953   8.106
   388G11  C0DL26214   1.499   1.154   8.277
   388G11  C0DK26215   1.367   1.123   8.259
   388G11  C0DN26216   1.296   1.212   8.329
   388G11  C0D826217   1.517   1.259   8.365
   388G11  C08W26218   2.216   0.928   7.869
   388G11  C0CQ26219   2.259   1.043   7.942
   388G11  C09326220   1.862   0.903   7.970
   388G11  C09226221   1.638   0.928   8.034
   388G11  C08526222   1.656   0.650   7.802
   388G11  C07S26223   1.722   0.483   7.639
   388G11  C06F26224   1.659   0.258   7.515
   388G11  C07O26225   1.362   0.443   7.739
   388G11  C07N26226   1.270   0.500   7.818
   388G11  C05D26227   1.393   0.174   7.518
   388G11  C05C26228   1.483   0.118   7.437
   388G11  C05N26229   1.421   0.014   7.378
   388G11  C05M26230   1.101  -0.143   7.500
   388G11  C05I26231   0.891  -0.124   7.617
   388G11  C06126232   0.651  -0.242   7.692
   388G11  C02Q26233   0.527  -0.449   7.720
   388G11  C02O26234   0.541  -0.740   7.677
   388G11  C03Q26235   0.795  -0.520   7.519
   388G11  C03O26236   1.011  -0.603   7.446
   388G11  C03L26237   1.140  -0.938   7.435
   388G11  C02S26238   0.792  -0.882   7.568
   388G11  C02T26239   0.806  -1.152   7.604
   388G11  C03K26240   1.147  -1.082   7.454
   388G11  C03I26241   0.812  -1.290   7.623
   388G11  C03G26242   0.849  -1.563   7.670
   388G11  H00D26243   0.865  -1.669   7.683
   388G11  C03J26244   1.144  -1.361   7.474
   388G11  C03W26245   1.364  -1.523   7.400
   388G11  C04I26246   1.494  -1.333   7.362
   388G11  C04K26247   1.720  -1.192   7.305
   388G11  C04N26248   1.830  -1.105   7.282
   388G11  C04X26249   1.937  -0.878   7.266
   388G11  C05026250   2.037  -0.650   7.243
   388G11  C05W26251   1.773  -0.550   7.264
   388G11  C05S26252   2.088  -0.187   7.277
   388G11  C05R26253   1.730  -0.257   7.229
   388G11  C05O26254   1.514  -0.076   7.313
   388G11  C05B26255   1.620   0.155   7.439
   388G11  C05A26256   1.932  -0.004   7.333
   388G11  C07R26257   1.797   0.300   7.510
   388G11  C08N26258   2.063   0.402   7.506
   388G11  C08M26259   2.190   0.471   7.481
   388G11  C08L26260   2.284   0.397   7.412
   388G11  C09126261   2.074  -0.048   7.342
   388G11  C09K26262   2.414  -0.027   7.400
   388G11  H00M26263   2.411  -0.110   7.470
   388G11  C08K26264   2.258   0.262   7.377
   388G11  C09J26265   2.532   0.052   7.375
   388G11  C09I26266   2.651   0.090   7.444
   388G11  C09L26267   2.730   0.011   7.537
   388G11  H00N26268   2.709  -0.094   7.549
   388G11  C09Q26269   2.836   0.074   7.593
   388G11  H00O26270   2.898   0.020   7.662
   388G11  O00B26271   2.876   0.200   7.560
   388G11  C09G26272   2.792   0.282   7.489
   388G11  C09F26273   2.839   0.417   7.484
   388G11  O00A26274   2.963   0.436   7.537
   388G11  C09P26275   3.015   0.559   7.524
   388G11  H00P26276   3.104   0.574   7.465
   388G11  C09O26277   2.938   0.669   7.564
   388G11  C09D26278   2.804   0.658   7.514
   388G11  C09C26279   2.707   0.763   7.535
   388G11  C09N26280   2.687   0.878   7.622
   388G11  C09T26281   2.780   0.919   7.714
   388G11  C09S26282   2.919   0.871   7.712
   388G11  C0CP26283   2.975   0.957   7.807
   388G11  C0CN26284   2.884   1.047   7.863
   388G11  C0CO26285   2.935   1.117   7.977
   388G11  H01426286   2.888   1.175   8.055
   388G11  C0CZ26287   3.076   1.122   7.993
   388G11  H01526288   3.106   1.184   8.077
   388G11  C0D026289   3.167   1.041   7.922
   388G11  C0G526290   3.306   1.041   7.941
   388G11  H01F26291   3.360   1.096   8.017
   388G11  C0G426292   3.383   0.952   7.877
   388G11  H01G26293   3.491   0.952   7.891
   388G11  O00H26294   3.338   0.872   7.776
   388G11  C0D226295   3.199   0.864   7.759
   388G11  C09V26296   3.141   0.781   7.654
   388G11  H00Q26297   3.207   0.705   7.613
   388G11  C0D126298   3.117   0.951   7.828
   388G11  C09R26299   2.999   0.778   7.638
   388G11  C09H26300   2.683   0.226   7.419
   388G11  C09E26301   2.756   0.532   7.458
   388G11  C09B26302   2.583   0.754   7.471
   388G11  C08Z26303   2.408   0.469   7.389
   388G11  C08O26304   2.214   0.596   7.543
   388G11  C09A26305   2.491   0.859   7.507
   388G11  C08S26306   2.262   0.833   7.768
   388G11  C09926307   2.561   0.937   7.603
   388G11  C09U26308   2.753   1.020   7.805
   388G11  C0BO26309   2.592   1.361   8.098
   388G11  C0CL26310   2.390   1.090   7.927
   388G11  C0D326311   2.166   1.099   8.037
   388G11  C0D526312   1.985   1.203   8.226
   388G11  C0BR26313   2.378   1.335   8.217
   388G11  C0BQ26314   2.506   1.386   8.209
   388G11  C0BL26315   2.768   1.500   8.191
   388G11  C0AF26316   2.864   1.628   8.404
   388G11  C0BH26317   2.519   1.577   8.514
   388G11  C0BG26318   2.437   1.613   8.622
   388G11  C0BD26319   2.620   1.712   8.736
   388G11  C0AG26320   2.913   1.683   8.514
   388G11  C0AI26321   3.099   1.780   8.630
   388G11  C0AV26322   3.198   1.945   8.811
   388G11  C0BB26323   2.877   1.839   8.961
   388G11  O00C26324   3.137   2.072   9.022
   388G11  C0BC26325   2.814   1.893   9.063
   388G11  C0B926326   2.679   1.765   8.852
   388G11  O00E26327   2.376   1.844   9.035
   388G11  C0CA26328   2.241   1.819   9.033
   388G11  O00F26329   2.170   1.857   9.130
   388G11  C0BF26330   2.488   1.687   8.725
   388G11  C0C526331   2.192   1.741   8.927
   388G11  C0C426332   2.058   1.710   8.925
   388G11  H01126333   1.996   1.753   9.003
   388G11  C0C826334   2.303   1.578   8.624
   388G11  C0C226335   2.005   1.639   8.813
   388G11  C0C326336   1.865   1.616   8.797
   388G11  C0DY26337   1.760   1.669   8.875
   388G11  H01626338   1.753   1.721   8.969
   388G11  C0DX26339   1.643   1.613   8.814
   388G11  C0DW26340   1.517   1.618   8.885
   388G11  C0BY26341   2.123   1.464   8.512
   388G11  C0DB26342   1.815   1.544   8.689
   388G11  C0CC26343   1.933   1.348   8.416
   388G11  C0D726344   1.657   1.295   8.392
   388G11  C0DZ26345   1.676   1.531   8.695
   388G11  C0DM26346   1.388   1.303   8.398
   388G11  C0DQ26347   1.374   1.484   8.714
   388G11  C0DV26348   1.400   1.562   8.830
   388G11  C0E026349   1.472   1.671   9.014
   388G11  C0FO26350   1.159   1.777   9.114
   388G11  C0E326351   1.501   1.786   9.104
   388G11  H01726352   1.590   1.847   9.103
   388G11  C0GV26353   1.171   1.895   9.181
   388G11  C0ES26354   1.058   1.758   9.016
   388G11  C0GQ26355   0.866   2.065   9.089
   388G11  C0FJ26356   0.661   1.952   8.807
   388G11  C0ED26357   0.843   1.727   8.828
   388G11  C0ER26358   0.552   1.558   8.769
   388G11  C0EP26359   0.645   1.374   8.662
   388G11  C0E626360   0.975   1.524   8.738
   388G11  C0DE26361   1.078   1.350   8.516
   388G11  C0EA26362   0.726   1.173   8.531
   388G11  C0DF26363   1.069   1.271   8.401
   388G11  C08026364   0.887   0.986   8.289
   388G11  C0DO26365   1.162   1.196   8.333
   388G11  C0DJ26366   1.313   1.018   8.181
   388G11  C07K26367   1.012   0.808   8.126
   388G11  C07W26368   1.370   0.849   8.032
   388G11  C08326369   1.298   0.618   7.891
   388G11  C07J26370   0.988   0.683   8.060
   388G11  C06O26371   0.927   0.440   7.931
   388G11  C06M26372   1.144   0.441   7.837
   398G11  C07126373   3.786   9.305   6.122
   398G11  C07L26374   3.779   9.325   5.981
   398G11  C07M26375   3.824   9.445   5.924
   398G11  C07Y26376   3.820   9.462   5.782
   398G11  C08126377   3.766   9.362   5.698
   398G11  C08226378   3.761   9.391   5.559
   398G11  C0DI26379   3.734   9.302   5.444
   398G11  C0DH26380   3.687   9.172   5.428
   398G11  C0DG26381   3.654   9.131   5.290
   398G11  C0E926382   3.689   9.013   5.217
   398G11  C0E826383   3.715   9.072   5.083
   398G11  C0E726384   3.694   9.009   4.953
   398G11  C0EB26385   3.643   8.875   4.940
   398G11  C0EF26386   3.564   8.816   4.829
   398G11  C0EE26387   3.506   8.880   4.723
   398G11  C0FD26388   3.377   8.837   4.685
   398G11  C0FE26389   3.281   8.773   4.772
   398G11  H01B26390   3.308   8.732   4.868
   398G11  C0FF26391   3.152   8.746   4.728
   398G11  H01A26392   3.080   8.694   4.790
   398G11  C0FG26393   3.116   8.772   4.594
   398G11  H01826394   3.022   8.743   4.549
   398G11  C0FH26395   3.211   8.823   4.504
   398G11  C0FI26396   3.186   8.860   4.370
   398G11  H01926397   3.086   8.832   4.340
   398G11  O00K26398   3.267   8.928   4.282
   398G11  C0FL26399   3.388   8.961   4.336
   398G11  C0FK26400   3.427   8.934   4.470
   398G11  C0FM26401   3.555   8.979   4.511
   398G11  C0FN26402   3.644   9.038   4.418
   398G11  C0FP26403   3.602   9.065   4.286
   398G11  C0GO26404   3.674   9.139   4.192
   398G11  C0GN26405   3.626   9.195   4.074
   398G11  C0GR26406   3.492   9.157   4.041
   398G11  C0GS26407   3.435   9.210   3.922
   398G11  H01Q26408   3.335   9.181   3.893
   398G11  C0GT26409   3.513   9.288   3.836
   398G11  H01O26410   3.475   9.336   3.746
   398G11  C0GU26411   3.643   9.335   3.874
   398G11  H01P26412   3.697   9.412   3.821
   398G11  O00L26413   3.431   9.058   4.115
   398G11  C0GM26414   3.696   9.290   4.001
   398G11  C0GL26415   3.816   9.339   4.060
   398G11  H01R26416   3.882   9.413   4.018
   398G11  C0GK26417   3.862   9.286   4.179
   398G11  C0GP26418   3.965   9.321   4.264
   398G11  C0E226419   3.978   9.224   4.368
   398G11  C0E126420   4.028   9.287   4.488
   398G11  C0DU26421   3.965   9.271   4.614
   398G11  C0DT26422   3.877   9.172   4.667
   398G11  C0E426423   3.790   9.090   4.599
   398G11  C0E526424   3.703   9.028   4.689
   398G11  C0DS26425   3.828   9.174   4.796
   398G11  C0DR26426   3.858   9.285   4.870
   398G11  C0DD26427   3.801   9.315   4.995
   398G11  C0DC26428   3.836   9.456   5.020
   398G11  C0DP26429   3.896   9.518   4.904
   398G11  C0DA26430   3.930   9.657   4.875
   398G11  C0D926431   3.964   9.765   4.975
   398G11  C0CR26432   4.006   9.891   4.932
   398G11  C0C026433   3.998   9.928   4.796
   398G11  C0BZ26434   4.032  10.054   4.742
   398G11  C0C126435   4.026  10.078   4.604
   398G11  C0C726436   4.080  10.195   4.550
   398G11  C0C626437   4.055  10.232   4.416
   398G11  C0C926438   4.097  10.357   4.370
   398G11  C0B826439   4.084  10.388   4.232
   398G11  C0B726440   4.114  10.520   4.187
   398G11  C0B626441   4.115  10.579   4.056
   398G11  C0B526442   4.167  10.505   3.940
   398G11  H00Z26443   4.181  10.399   3.925
   398G11  C0B426444   4.217  10.610   3.852
   398G11  H01026445   4.280  10.603   3.764
   398G11  C0B326446   4.199  10.739   3.911
   398G11  C0AP26447   4.266  10.871   3.932
   398G11  C0AQ26448   4.246  10.890   4.070
   398G11  C0AR26449   4.340  10.959   4.144
   398G11  C0AS26450   4.343  10.921   4.274
   398G11  C0AT26451   4.289  10.812   4.330
   398G11  C0BA26452   4.204  10.739   4.255
   398G11  C0AU26453   4.331  10.762   4.455
   398G11  C0BE26454   4.279  10.644   4.501
   398G11  C0BI26455   4.316  10.603   4.626
   398G11  C0BJ26456   4.401  10.680   4.700
   398G11  C0BK26457   4.426  10.647   4.830
   398G11  C0BW26458   4.358  10.542   4.887
   398G11  C0BV26459   4.281  10.458   4.807
   398G11  C0BU26460   4.215  10.345   4.860
   398G11  C0BX26461   4.147  10.260   4.775
   398G11  C0BT26462   4.222  10.320   4.997
   398G11  C0CD26463   4.162  10.208   5.047
   398G11  C0CB26464   4.115  10.110   4.957
   398G11  C0CE26465   4.172  10.185   5.181
   398G11  C0CK26466   4.220  10.289   5.266
   398G11  C0BS26467   4.287  10.400   5.218
   398G11  C0CJ26468   4.352  10.495   5.306
   398G11  C0BP26469   4.427  10.598   5.243
   398G11  C0CI26470   4.503  10.683   5.323
   398G11  C0CH26471   4.606  10.746   5.253
   398G11  H01226472   4.681  10.790   5.317
   398G11  C0BN26473   4.605  10.770   5.117
   398G11  C0CG26474   4.681  10.876   5.058
   398G11  C0CF26475   4.783  10.950   5.129
   398G11  H01326476   4.810  10.925   5.231
   398G11  O00G26477   4.834  11.069   5.073
   398G11  C0AA26478   4.824  11.093   4.944
   398G11  C0A926479   4.906  11.195   4.894
   398G11  H00U26480   4.966  11.245   4.968
   398G11  C0A826481   4.901  11.217   4.750
   398G11  H00V26482   4.969  11.298   4.730
   398G11  C0A726483   4.813  11.152   4.659
   398G11  C0A626484   4.728  11.048   4.721
   398G11  C0A526485   4.629  10.977   4.655
   398G11  C0A426486   4.589  11.015   4.521
   398G11  C0A326487   4.622  11.104   4.414
   398G11  C0A226488   4.732  11.181   4.411
   398G11  C0A126489   4.755  11.266   4.303
   398G11  C0A026490   4.703  11.299   4.164
   398G11  C09Z26491   4.757  11.409   4.101
   398G11  C09Y26492   4.731  11.442   3.965
   398G11  H00Y26493   4.772  11.525   3.910
   398G11  C09X26494   4.641  11.350   3.892
   398G11  C09W26495   4.615  11.374   3.754
   398G11  H00R26496   4.670  11.457   3.712
   398G11  C0AX26497   4.553  11.275   3.675
   398G11  H00S26498   4.545  11.283   3.568
   398G11  C0AW26499   4.498  11.163   3.739
   398G11  H00T26500   4.451  11.085   3.681
   398G11  C0AN26501   4.503  11.147   3.879
   398G11  C0AO26502   4.430  11.051   3.945
   398G11  C0AM26503   4.581  11.239   3.954
   398G11  C0B226504   4.849  11.501   4.160
   398G11  O00D26505   4.879  11.608   4.112
   398G11  C0B126506   4.916  11.459   4.278
   398G11  H00W26507   5.006  11.498   4.323
   398G11  C0AL26508   4.601  11.222   4.095
   398G11  C0AK26509   4.534  11.116   4.152
   398G11  C0B026510   4.862  11.349   4.351
   398G11  C0AZ26511   4.905  11.308   4.480
   398G11  H00X26512   4.972  11.366   4.540
   398G11  C0AJ26513   4.541  11.075   4.293
   398G11  C0AH26514   4.483  10.944   4.469
   398G11  C0AE26515   4.555  10.867   4.717
   398G11  C0AD26516   4.576  10.834   4.852
   398G11  C0AY26517   4.817  11.202   4.526
   398G11  C0AB26518   4.732  11.017   4.862
   398G11  C0AC26519   4.662  10.912   4.927
   398G11  C0BM26520   4.517  10.701   5.044
   398G11  C0CM26521   4.472  10.702   5.459
   398G11  C09M26522   4.394  10.598   5.526
   398G11  C09826523   4.359  10.621   5.662
   398G11  C08R26524   4.310  10.529   5.769
   398G11  C08Q26525   4.304  10.583   5.903
   398G11  C08P26526   4.318  10.542   6.043
   398G11  C08Y26527   4.361  10.637   6.135
   398G11  C09726528   4.416  10.759   6.087
   398G11  C09626529   4.535  10.786   6.156
   398G11  C09026530   4.527  10.706   6.275
   398G11  C09526531   4.636  10.675   6.368
   398G11  C09426532   4.622  10.591   6.476
   398G11  C08J26533   4.521  10.514   6.537
   398G11  C08I26534   4.587  10.429   6.625
   398G11  C08H26535   4.522  10.298   6.623
   398G11  C08G26536   4.436  10.304   6.499
   398G11  C08F26537   4.336  10.218   6.427
   398G11  C08E26538   4.271  10.112   6.486
   398G11  C05926539   4.262  10.092   6.624
   398G11  C05826540   4.172   9.992   6.677
   398G11  C05726541   4.165   9.950   6.813
   398G11  C05626542   4.256  10.018   6.896
   398G11  C05526543   4.320  10.130   6.862
   398G11  C05426544   4.423  10.156   6.958
   398G11  C05326545   4.426  10.046   7.058
   398G11  C05226546   4.520  10.004   7.162
   398G11  C05126547   4.643  10.075   7.180
   398G11  C05U26548   4.702  10.174   7.092
   398G11  C05T26549   4.658  10.241   6.971
   398G11  C06K26550   4.753  10.344   6.947
   398G11  H00J26551   4.733  10.419   6.872
   398G11  C06L26552   4.853  10.350   7.044
   398G11  H00I26553   4.925  10.429   7.055
   398G11  C05V26554   4.821  10.239   7.128
   398G11  C06J26555   4.893  10.213   7.241
   398G11  H00K26556   4.979  10.276   7.255
   398G11  C05X26557   4.848  10.113   7.324
   398G11  C06I26558   4.920  10.070   7.439
   398G11  H00L26559   5.010  10.127   7.459
   398G11  C04Z26560   4.877   9.970   7.526
   398G11  C06H26561   4.963   9.929   7.638
   398G11  H00H26562   5.056   9.981   7.656
   398G11  C04Y26563   4.923   9.819   7.720
   398G11  C06G26564   5.004   9.786   7.835
   398G11  O00926565   5.105   9.842   7.870
   398G11  O00826566   4.965   9.680   7.911
   398G11  C04P26567   4.855   9.601   7.879
   398G11  C04J26568   4.827   9.477   7.943
   398G11  C04Q26569   4.896   9.414   8.047
   398G11  H00E26570   4.982   9.466   8.088
   398G11  C04M26571   4.856   9.297   8.103
   398G11  C04R26572   4.928   9.226   8.202
   398G11  H00F26573   5.016   9.271   8.246
   398G11  C04S26574   4.891   9.098   8.237
   398G11  H00G26575   4.959   9.056   8.309
   398G11  O00726576   4.788   9.026   8.183
   398G11  C03V26577   4.720   9.092   8.086
   398G11  C03U26578   4.619   9.014   8.021
   398G11  O00626579   4.595   8.889   8.072
   398G11  C03F26580   4.525   8.803   7.987
   398G11  C03E26581   4.448   8.854   7.875
   398G11  C03D26582   4.459   8.992   7.840
   398G11  C03C26583   4.391   9.034   7.726
   398G11  C03B26584   4.314   8.939   7.656
   398G11  C03A26585   4.239   8.985   7.551
   398G11  C03926586   4.246   9.120   7.504
   398G11  C03826587   4.147   9.116   7.391
   398G11  C03726588   4.086   8.984   7.400
   398G11  C03626589   3.998   8.954   7.305
   398G11  C02R26590   3.940   8.831   7.282
   398G11  C03526591   3.861   8.851   7.170
   398G11  C03R26592   3.869   8.980   7.123
   398G11  C03S26593   3.849   9.016   6.990
   398G11  C04926594   3.894   9.136   6.953
   398G11  C04826595   3.973   9.211   7.048
   398G11  C03P26596   4.015   9.164   7.182
   398G11  C04726597   4.004   9.342   7.002
   398G11  C04626598   4.066   9.437   7.076
   398G11  C04526599   4.138   9.439   7.198
   398G11  C03T26600   4.155   9.334   7.291
   398G11  C04426601   4.246   9.387   7.390
   398G11  C04326602   4.243   9.525   7.374
   398G11  C04226603   4.351   9.587   7.442
   398G11  C04126604   4.400   9.473   7.531
   398G11  C04026605   4.489   9.491   7.635
   398G11  C03Z26606   4.528   9.393   7.724
   398G11  C04H26607   4.630   9.459   7.801
   398G11  C04G26608   4.657   9.577   7.739
   398G11  C03N26609   4.500   9.253   7.758
   398G11  C03Y26610   4.576   9.202   7.864
   398G11  C03X26611   4.678   9.271   7.927
   398G11  C04F26612   4.575   9.602   7.635
   398G11  C04E26613   4.601   9.717   7.554
   398G11  C04O26614   4.721   9.792   7.582
   398G11  C04D26615   4.542   9.754   7.430
   398G11  C04V26616   4.588   9.864   7.354
   398G11  C04W26617   4.701   9.945   7.384
   398G11  C04C26618   4.436   9.687   7.372
   398G11  C04L26619   4.405   9.779   7.254
   398G11  C04U26620   4.287   9.770   7.171
   398G11  C05Q26621   4.249   9.858   7.067
   398G11  C05P26622   4.153   9.794   6.987
   398G11  C04T26623   4.131   9.664   7.044
   398G11  C04B26624   4.208   9.664   7.159
   398G11  C03M26625   4.325   9.352   7.507
   398G11  C04A26626   4.199   9.553   7.244
   398G11  C05H26627   4.064   9.550   6.999
   398G11  C05G26628   3.995   9.531   6.879
   398G11  C05F26629   3.964   9.629   6.781
   398G11  C05E26630   3.933   9.593   6.644
   398G11  C05L26631   3.891   9.475   6.564
   398G11  C05K26632   3.869   9.349   6.631
   398G11  C05J26633   3.900   9.305   6.769
   398G11  C06626634   3.820   9.241   6.542
   398G11  C06526635   3.809   9.262   6.404
   398G11  C06426636   3.842   9.383   6.344
   398G11  C06N26637   3.762   9.163   6.318
   398G11  C06926638   3.738   9.038   6.367
   398G11  C06P26639   3.713   8.929   6.279
   398G11  C06R26640   3.712   8.798   6.325
   398G11  C06B26641   3.726   8.773   6.460
   398G11  C06S26642   3.718   8.643   6.506
   398G11  C02G26643   3.735   8.616   6.642
   398G11  C02F26644   3.739   8.484   6.680
   398G11  C02726645   3.731   8.380   6.594
   398G11  C02626646   3.732   8.251   6.645
   398G11  C00E26647   3.730   8.147   6.557
   398G11  C00D26648   3.743   8.018   6.604
   398G11  C00C26649   3.749   7.918   6.513
   398G11  C00B26650   3.738   7.935   6.376
   398G11  C01526651   3.727   8.066   6.331
   398G11  C07F26652   3.718   8.085   6.196
   398G11  C07E26653   3.696   8.216   6.148
   398G11  C06W26654   3.701   8.324   6.235
   398G11  C06V26655   3.713   8.298   6.371
   398G11  C06X26656   3.682   8.453   6.193
   398G11  C07B26657   3.664   8.477   6.059
   398G11  C07C26658   3.673   8.370   5.969
   398G11  C0FU26659   3.668   8.393   5.832
   398G11  C0F726660   3.683   8.290   5.742
   398G11  C0F626661   3.685   8.322   5.608
   398G11  C0F826662   3.707   8.222   5.519
   398G11  C0F926663   3.705   8.248   5.386
   398G11  C0FA26664   3.716   8.143   5.294
   398G11  C0FZ26665   3.762   8.019   5.338
   398G11  C0G026666   3.782   7.915   5.247
   398G11  C0GD26667   3.730   7.922   5.114
   398G11  C0FC26668   3.677   8.046   5.069
   398G11  C0GH26669   3.612   8.059   4.943
   398G11  C0EY26670   3.586   8.186   4.899
   398G11  C0EX26671   3.528   8.203   4.768
   398G11  C0EW26672   3.502   8.333   4.722
   398G11  C0FR26673   3.431   8.348   4.599
   398G11  H01D26674   3.400   8.445   4.563
   398G11  C0FS26675   3.409   8.241   4.515
   398G11  H01C26676   3.356   8.247   4.421
   398G11  C0GJ26677   3.437   8.115   4.564
   398G11  H01N26678   3.411   8.027   4.507
   398G11  C0EV26679   3.528   8.443   4.806
   398G11  C0FT26680   3.529   8.576   4.750
   398G11  H01E26681   3.500   8.602   4.650
   398G11  C0EU26682   3.574   8.423   4.934
   398G11  C0ET26683   3.596   8.527   5.026
   398G11  C0EI26684   3.635   8.517   5.159
   398G11  C0F126685   3.651   8.389   5.208
   398G11  C0F026686   3.650   8.279   5.116
   398G11  C0EH26687   3.650   8.636   5.237
   398G11  C0EG26688   3.653   8.772   5.182
   398G11  C0EJ26689   3.653   8.616   5.376
   398G11  C0F326690   3.662   8.483   5.426
   398G11  C0EK26691   3.640   8.721   5.468
   398G11  C0EL26692   3.652   8.853   5.416
   398G11  C0EM26693   3.644   8.951   5.527
   398G11  C0EN26694   3.629   8.912   5.659
   398G11  C07I26695   3.638   9.018   5.748
   398G11  C07426696   3.654   8.998   5.888
   398G11  C07326697   3.687   9.110   5.963
   398G11  C07226698   3.711   9.086   6.099
   398G11  C07526699   3.644   8.866   5.924
   398G11  C07626700   3.635   8.760   5.834
   398G11  C07826701   3.640   8.628   5.878
   398G11  C07G26702   3.665   8.844   6.058
   398G11  C07026703   3.661   8.712   6.108
   398G11  C07Z26704   3.677   9.130   5.677
   398G11  C07726705   3.619   8.781   5.701
   398G11  C0EO26706   3.629   8.684   5.605
   398G11  C0F426707   3.647   8.555   5.648
   398G11  C0EQ26708   3.604   8.653   4.974
   398G11  C0FQ26709   3.493   8.095   4.690
   398G11  C0GI26710   3.530   7.971   4.742
   398G11  H01L26711   3.514   7.883   4.681
   398G11  C0EZ26712   3.603   8.299   4.979
   398G11  C0GG26713   3.595   7.948   4.863
   398G11  C0GF26714   3.652   7.826   4.902
   398G11  H01M26715   3.648   7.733   4.847
   398G11  C0GE26716   3.718   7.814   5.027
   398G11  H01K26717   3.757   7.720   5.061
   398G11  O00J26718   3.833   7.795   5.287
   398G11  C0GA26719   3.847   7.768   5.420
   398G11  C0G926720   3.891   7.646   5.467
   398G11  H01H26721   3.933   7.578   5.394
   398G11  C0G826722   3.870   7.609   5.604
   398G11  C0G726723   3.911   7.483   5.653
   398G11  H01I26724   3.963   7.411   5.591
   398G11  O00I26725   3.882   7.439   5.773
   398G11  C0G626726   3.844   7.541   5.863
   398G11  H01J26727   3.796   7.499   5.950
   398G11  C02D26728   3.831   7.680   5.828
   398G11  C02C26729   3.806   7.780   5.921
   398G11  C01726730   3.806   7.755   6.061
   398G11  C01626731   3.765   7.857   6.151
   398G11  O00126732   3.842   7.630   6.109
   398G11  C01826733   3.828   7.591   6.242
   398G11  C00926734   3.789   7.687   6.338
   398G11  C00826735   3.793   7.674   6.485
   398G11  C00726736   3.837   7.577   6.580
   398G11  C00626737   3.874   7.455   6.540
   398G11  C00526738   3.907   7.351   6.634
   398G11  C00426739   3.925   7.358   6.781
   398G11  C00326740   3.923   7.468   6.876
   398G11  C00226741   3.964   7.451   7.015
   398G11  C00P26742   3.964   7.555   7.106
   398G11  C00O26743   4.024   7.536   7.235
   398G11  C00N26744   4.025   7.639   7.330
   398G11  C01026745   4.085   7.630   7.453
   398G11  C01126746   4.102   7.740   7.538
   398G11  C01Q26747   4.185   7.729   7.654
   398G11  C01U26748   4.260   7.612   7.681
   398G11  C01226749   4.234   7.505   7.595
   398G11  H00026750   4.292   7.415   7.612
   398G11  C01V26751   4.348   7.615   7.791
   398G11  H00726752   4.415   7.535   7.819
   398G11  O00526753   4.359   7.723   7.877
   398G11  C01W26754   4.273   7.830   7.858
   398G11  C03126755   4.262   7.923   7.959
   398G11  C03226756   4.152   8.020   7.951
   398G11  H00A26757   4.133   8.094   8.028
   398G11  C03326758   4.085   8.040   7.830
   398G11  H00B26759   4.015   8.122   7.825
   398G11  C01O26760   4.108   7.949   7.722
   398G11  C01N26761   4.057   7.972   7.594
   398G11  C01M26762   4.012   8.107   7.548
   398G11  C01L26763   4.034   8.255   7.558
   398G11  C01K26764   3.954   8.318   7.462
   398G11  C01Y26765   3.968   8.446   7.413
   398G11  C02I26766   4.043   8.535   7.484
   398G11  C02N26767   4.044   8.670   7.444
   398G11  C02M26768   4.128   8.755   7.517
   398G11  C02L26769   4.216   8.715   7.621
   398G11  C02K26770   4.217   8.580   7.654
   398G11  C02U26771   4.301   8.539   7.755
   398G11  C02V26772   4.362   8.630   7.840
   398G11  C03H26773   4.417   8.587   7.965
   398G11  H00C26774   4.401   8.491   8.014
   398G11  C02W26775   4.317   8.404   7.780
   398G11  C02X26776   4.235   8.316   7.713
   398G11  C02Y26777   4.303   8.193   7.717
   398G11  H00826778   4.299   8.100   7.662
   398G11  C02Z26779   4.408   8.210   7.824
   398G11  O00426780   4.473   8.120   7.880
   398G11  O00326781   4.414   8.342   7.848
   398G11  C02J26782   4.126   8.489   7.593
   398G11  C01Z26783   3.897   8.474   7.300
   398G11  C02026784   3.840   8.374   7.218
   398G11  C01I26785   3.847   8.241   7.257
   398G11  C01H26786   3.826   8.134   7.175
   398G11  C00K26787   3.868   8.007   7.215
   398G11  C01S26788   3.919   7.987   7.344
   398G11  C01426789   3.968   7.870   7.383
   398G11  C00J26790   3.858   7.900   7.130
   398G11  C00I26791   3.817   7.931   7.000
   398G11  C00H26792   3.780   8.061   6.955
   398G11  C00G26793   3.755   8.090   6.824
   398G11  C00S26794   3.822   7.826   6.907
   398G11  C00T26795   3.772   7.861   6.782
   398G11  C00U26796   3.775   7.754   6.694
   398G11  C00R26797   3.869   7.697   6.939
   398G11  C00L26798   3.907   7.776   7.169
   398G11  C02826799   3.793   8.164   7.047
   398G11  C02326800   3.782   8.294   6.999
   398G11  C02426801   3.751   8.323   6.866
   398G11  C02126802   3.809   8.398   7.084
   398G11  C02226803   3.801   8.526   7.040
   398G11  C02H26804   3.766   8.555   6.908
   398G11  C03026805   3.761   8.689   6.866
   398G11  C03426806   3.794   8.788   6.951
   398G11  C02P26807   3.842   8.627   7.127
   398G11  C02B26808   3.901   8.600   7.251
   398G11  C01J26809   3.897   8.220   7.385
   398G11  C01X26810   4.128   8.344   7.626
   398G11  C01T26811   3.934   8.094   7.427
   398G11  H00926812   4.329   7.904   8.042
   398G11  C01P26813   4.185   7.837   7.744
   398G11  C01R26814   4.038   7.861   7.505
   398G11  C00Z26815   4.151   7.509   7.481
   398G11  O00026816   4.142   7.399   7.397
   398G11  C00M26817   3.966   7.759   7.293
   398G11  C00Y26818   4.081   7.411   7.274
   398G11  C01326819   4.065   7.308   7.186
   398G11  H00126820   4.094   7.204   7.199
   398G11  C00Q26821   3.908   7.673   7.073
   398G11  C00126822   4.001   7.319   7.061
   398G11  C00026823   3.984   7.216   6.970
   398G11  H00626824   4.012   7.118   7.006
   398G11  C00W26825   3.878   7.596   6.845
   398G11  C01G26826   3.949   7.231   6.837
   398G11  H00526827   3.934   7.143   6.776
   398G11  C01C26828   3.938   7.232   6.560
   398G11  H00226829   3.977   7.132   6.579
   398G11  C01B26830   3.907   7.266   6.425
   398G11  C01D26831   3.925   7.182   6.305
   398G11  H00326832   3.960   7.081   6.313
   398G11  C01E26833   3.907   7.241   6.187
   398G11  H00426834   3.923   7.180   6.099
   398G11  O00226835   3.866   7.371   6.170
   398G11  C01A26836   3.880   7.404   6.412
   398G11  C00V26837   3.838   7.635   6.714
   398G11  C01926838   3.863   7.455   6.275
   398G11  C02E26839   3.777   7.911   5.877
   398G11  C0FX26840   3.783   7.940   5.742
   398G11  C0FW26841   3.745   8.067   5.698
   398G11  C0GB26842   3.809   7.840   5.654
   398G11  C0G326843   3.742   8.011   5.969
   398G11  C07H26844   3.712   8.139   5.923
   398G11  C0GC26845   3.832   7.713   5.694
   398G11  C0G226846   3.810   7.869   5.518
   398G11  C0G126847   3.779   7.996   5.472
   398G11  C0FB26848   3.681   8.155   5.161
   398G11  C0F226849   3.672   8.372   5.343
   398G11  C0FY26850   3.742   8.096   5.566
   398G11  C0F526851   3.663   8.452   5.558
   398G11  C0FV26852   3.709   8.160   5.786
   398G11  C07926853   3.645   8.526   5.787
   398G11  C07A26854   3.647   8.608   6.015
   398G11  C06Y26855   3.695   8.563   6.282
   398G11  C07D26856   3.686   8.243   6.013
   398G11  C01F26857   3.741   7.984   6.104
   398G11  C00A26858   3.768   7.825   6.292
   398G11  C00X26859   3.758   7.787   6.561
   398G11  C00F26860   3.757   7.990   6.735
   398G11  C02926861   3.730   8.169   6.418
   398G11  C02526862   3.741   8.221   6.779
   398G11  C06U26863   3.720   8.406   6.459
   398G11  C02A26864   3.748   8.454   6.819
   398G11  C05Y26865   3.749   8.719   6.732
   398G11  C05Z26866   3.759   8.849   6.684
   398G11  C06026867   3.792   8.949   6.772
   398G11  C06226868   3.825   9.080   6.726
   398G11  C06T26869   3.714   8.537   6.412
   398G11  C06A26870   3.743   8.879   6.549
   398G11  C06Z26871   3.685   8.696   6.243
   398G11  C06Q26872   3.695   8.952   6.143
   398G11  C06826873   3.753   9.010   6.507
   398G11  C06726874   3.796   9.111   6.596
   398G11  C06326875   3.884   9.490   6.426
   398G11  C06C26876   3.929   9.610   6.360
   398G11  C06D26877   3.980   9.715   6.433
   398G11  C06E26878   4.052   9.825   6.384
   398G11  C07Q26879   4.048   9.836   6.250
   398G11  C07P26880   3.983   9.738   6.173
   398G11  C07T26881   3.983   9.756   6.034
   398G11  C07U26882   3.931   9.658   5.952
   398G11  C07V26883   3.930   9.678   5.815
   398G11  C08426884   3.984   9.795   5.761
   398G11  C08C26885   4.039   9.887   5.842
   398G11  C08B26886   4.097   9.996   5.783
   398G11  C08A26887   4.145  10.093   5.871
   398G11  C08926888   4.141  10.087   6.006
   398G11  C08826889   4.203  10.184   6.079
   398G11  C08726890   4.229  10.160   6.210
   398G11  C08626891   4.179  10.045   6.270
   398G11  C08X26892   4.255  10.306   6.017
   398G11  C08T26893   4.260  10.307   5.873
   398G11  C08D26894   4.090   9.972   6.062
   398G11  C08U26895   4.197  10.204   5.811
   398G11  C08V26896   4.200  10.220   5.675
   398G11  C0CY26897   4.162  10.122   5.586
   398G11  C0CX26898   4.169  10.150   5.454
   398G11  C0CW26899   4.112  10.054   5.368
   398G11  C0CV26900   4.059   9.939   5.422
   398G11  C0D426901   4.051   9.919   5.563
   398G11  C0CU26902   3.997   9.844   5.342
   398G11  C0CT26903   4.013   9.855   5.201
   398G11  C0CS26904   4.069   9.970   5.146
   398G11  C0D626905   3.936   9.742   5.409
   398G11  C0EC26906   3.929   9.718   5.544
   398G11  C07X26907   3.871   9.606   5.596
   398G11  C0DL26908   3.893   9.649   5.319
   398G11  C0DK26909   3.824   9.536   5.376
   398G11  C0DN26910   3.798   9.459   5.274
   398G11  C0D826911   3.894   9.644   5.180
   398G11  C08W26912   4.263  10.336   5.638
   398G11  C0CQ26913   4.276  10.367   5.494
   398G11  C09326914   4.108  10.009   5.644
   398G11  C09226915   3.990   9.809   5.622
   398G11  C08526916   4.035   9.873   5.980
   398G11  C07S26917   4.101   9.950   6.193
   398G11  C06F26918   4.114   9.924   6.460
   398G11  C07O26919   3.928   9.622   6.228
   398G11  C07N26920   3.875   9.523   6.147
   398G11  C05D26921   3.965   9.707   6.566
   398G11  C05C26922   4.025   9.805   6.643
   398G11  C05N26923   4.024   9.761   6.772
   398G11  C05M26924   3.962   9.393   6.874
   398G11  C05I26925   3.871   9.176   6.820
   398G11  C06126926   3.810   8.916   6.909
   398G11  C02Q26927   3.815   8.750   7.082
   398G11  C02O26928   3.966   8.699   7.329
   398G11  C03Q26929   3.957   9.039   7.206
   398G11  C03O26930   4.107   9.207   7.287
   398G11  C03L26931   4.332   9.219   7.564
   398G11  C02S26932   4.147   8.899   7.487
   398G11  C02T26933   4.296   8.810   7.692
   398G11  C03K26934   4.405   9.169   7.681
   398G11  C03I26935   4.369   8.764   7.803
   398G11  C03G26936   4.498   8.677   8.037
   398G11  H00D26937   4.542   8.645   8.131
   398G11  C03J26938   4.548   9.074   7.912
   398G11  C03W26939   4.745   9.227   8.039
   398G11  C04I26940   4.713   9.400   7.895
   398G11  C04K26941   4.769   9.650   7.781
   398G11  C04N26942   4.800   9.755   7.693
   398G11  C04X26943   4.763   9.901   7.501
   398G11  C05026944   4.730  10.047   7.288
   398G11  C05W26945   4.502   9.887   7.245
   398G11  C05S26946   4.537  10.212   6.888
   398G11  C05R26947   4.307   9.976   7.018
   398G11  C05O26948   4.113   9.829   6.860
   398G11  C05B26949   4.105   9.914   6.593
   398G11  C05A26950   4.349  10.150   6.726
   398G11  C07R26951   4.191  10.031   6.407
   398G11  C08N26952   4.303  10.254   6.289
   398G11  C08M26953   4.336  10.378   6.230
   398G11  C08L26954   4.409  10.472   6.311
   398G11  C09126955   4.481  10.218   6.742
   398G11  C09K26956   4.726  10.472   6.641
   398G11  H00M26957   4.803  10.413   6.689
   398G11  C08K26958   4.448  10.433   6.440
   398G11  C09J26959   4.741  10.581   6.551
   398G11  C09I26960   4.825  10.677   6.490
   398G11  C09L26961   4.934  10.753   6.542
   398G11  H00N26962   4.969  10.741   6.643
   398G11  C09Q26963   4.977  10.857   6.467
   398G11  H00O26964   5.054  10.915   6.515
   398G11  O00B26965   4.928  10.900   6.349
   398G11  C09G26966   4.812  10.833   6.295
   398G11  C09F26967   4.772  10.892   6.170
   398G11  O00A26968   4.862  10.976   6.111
   398G11  C09P26969   4.804  11.056   6.014
   398G11  H00P26970   4.769  11.156   6.036
   398G11  C09O26971   4.730  10.988   5.915
   398G11  C09D26972   4.633  10.897   5.968
   398G11  C09C26973   4.522  10.840   5.897
   398G11  C09N26974   4.496  10.814   5.756
   398G11  C09T26975   4.588  10.835   5.656
   398G11  C09S26976   4.667  10.956   5.674
   398G11  C0CP26977   4.657  11.012   5.550
   398G11  C0CN26978   4.571  10.948   5.457
   398G11  C0CO26979   4.536  11.009   5.337
   398G11  H01426980   4.464  10.958   5.275
   398G11  C0CZ26981   4.609  11.125   5.302
   398G11  H01526982   4.584  11.177   5.210
   398G11  C0D026983   4.700  11.187   5.392
   398G11  C0G526984   4.775  11.307   5.360
   398G11  H01F26985   4.770  11.360   5.266
   398G11  C0G426986   4.859  11.362   5.451
   398G11  H01G26987   4.915  11.451   5.424
   398G11  O00H26988   4.866  11.324   5.583
   398G11  C0D226989   4.795  11.210   5.618
   398G11  C09V26990   4.805  11.143   5.744
   398G11  H00Q26991   4.866  11.188   5.822
   398G11  C0D126992   4.719  11.138   5.523
   398G11  C09R26993   4.737  11.024   5.778
   398G11  C09H26994   4.760  10.734   6.373
   398G11  C09E26995   4.647  10.861   6.107
   398G11  C09B26996   4.410  10.792   5.957
   398G11  C08Z26997   4.440  10.599   6.244
   398G11  C08O26998   4.300  10.409   6.096
   398G11  C09A26999   4.319  10.722   5.868
   398G11  C08S27000   4.301  10.396   5.763
   398G11  C09927001   4.374  10.739   5.736
   398G11  C09U27002   4.543  10.818   5.519
   398G11  C0BO27003   4.439  10.600   5.105
   398G11  C0CL27004   4.345  10.481   5.448
   398G11  C0D327005   4.220  10.270   5.409
   398G11  C0D527006   4.120  10.068   5.228
   398G11  C0BR27007   4.294  10.409   5.076
   398G11  C0BQ27008   4.362  10.516   5.024
   398G11  C0BL27009   4.506  10.724   4.909
   398G11  C0AF27010   4.464  10.794   4.648
   398G11  C0BH27011   4.263  10.487   4.674
   398G11  C0BG27012   4.195  10.401   4.589
   398G11  C0BD27013   4.199  10.566   4.415
   398G11  C0AG27014   4.427  10.830   4.525
   398G11  C0AI27015   4.451  10.975   4.340
   398G11  C0AV27016   4.434  11.041   4.082
   398G11  C0BB27017   4.172  10.785   4.126
   398G11  O00C27018   4.359  10.948   3.868
   398G11  C0BC27019   4.116  10.713   4.025
   398G11  C0B927020   4.165  10.611   4.284
   398G11  O00E27021   4.017  10.293   4.150
   398G11  C0CA27022   3.963  10.178   4.195
   398G11  O00F27023   3.894  10.105   4.121
   398G11  C0BF27024   4.162  10.441   4.460
   398G11  C0C527025   3.990  10.146   4.328
   398G11  C0C427026   3.955  10.019   4.376
   398G11  H01127027   3.921   9.945   4.305
   398G11  C0C827028   4.137  10.287   4.637
   398G11  C0C227029   3.976   9.986   4.513
   398G11  C0C327030   3.955   9.860   4.568
   398G11  C0DY27031   3.932   9.738   4.507
   398G11  H01627032   3.935   9.711   4.403
   398G11  C0DX27033   3.936   9.636   4.611
   398G11  C0DW27034   3.985   9.500   4.585
   398G11  C0BY27035   4.097  10.141   4.829
   398G11  C0DB27036   3.962   9.832   4.703
   398G11  C0CC27037   4.066   9.987   5.014
   398G11  C0D727038   3.957   9.755   5.119
   398G11  C0DZ27039   3.939   9.697   4.738
   398G11  C0DM27040   3.830   9.524   5.150
   398G11  C0DQ27041   3.910   9.405   4.812
   398G11  C0DV27042   3.958   9.398   4.681
   398G11  C0E027043   4.032   9.429   4.461
   398G11  C0FO27044   3.859   9.137   4.361
   398G11  C0E327045   3.991   9.450   4.324
   398G11  H01727046   3.961   9.539   4.271
   398G11  C0GV27047   3.800   9.178   4.238
   398G11  C0ES27048   3.769   9.085   4.462
   398G11  C0GQ27049   3.473   9.030   4.248
   398G11  C0FJ27050   3.338   8.865   4.554
   398G11  C0ED27051   3.582   8.964   4.646
   398G11  C0ER27052   3.564   8.678   4.839
   398G11  C0EP27053   3.635   8.771   5.039
   398G11  C0E627054   3.737   9.067   4.828
   398G11  C0DE27055   3.745   9.217   5.091
   398G11  C0EA27056   3.662   8.878   5.273
   398G11  C0DF27057   3.695   9.248   5.217
   398G11  C08027058   3.667   9.093   5.538
   398G11  C0DO27059   3.744   9.340   5.308
   398G11  C0DJ27060   3.815   9.509   5.516
   398G11  C07K27061   3.718   9.246   5.762
   398G11  C07W27062   3.877   9.582   5.732
   398G11  C08327063   3.877   9.544   6.007
   398G11  C07J27064   3.724   9.229   5.900
   398G11  C06O27065   3.752   9.183   6.181
   398G11  C06M27066   3.836   9.402   6.206
   408G11  C07127067   0.937   2.351   6.208
   408G11  C07L27068   0.842   2.394   6.298
   408G11  C07M27069   0.849   2.520   6.356
   408G11  C07Y27070   0.743   2.561   6.446
   408G11  C08127071   0.639   2.473   6.483
   408G11  C08227072   0.544   2.526   6.576
   408G11  C0DI27073   0.419   2.464   6.627
   408G11  C0DH27074   0.350   2.346   6.600
   408G11  C0DG27075   0.240   2.319   6.694
   408G11  C0E927076   0.107   2.278   6.660
   408G11  C0E827077   0.023   2.353   6.763
   408G11  C0E727078  -0.106   2.320   6.819
   408G11  C0EB27079  -0.174   2.197   6.783
   408G11  C0EF27080  -0.290   2.138   6.847
   408G11  C0EE27081  -0.319   2.123   6.984
   408G11  C0FD27082  -0.326   1.998   7.046
   408G11  C0FE27083  -0.308   1.875   6.985
   408G11  H01B27084  -0.284   1.867   6.880
   408G11  C0FF27085  -0.309   1.758   7.060
   408G11  H01A27086  -0.275   1.667   7.012
   408G11  C0FG27087  -0.335   1.758   7.196
   408G11  H01827088  -0.341   1.669   7.257
   408G11  C0FH27089  -0.346   1.880   7.260
   408G11  C0FI27090  -0.361   1.893   7.407
   408G11  H01927091  -0.336   1.805   7.463
   408G11  O00K27092  -0.380   2.008   7.475
   408G11  C0FL27093  -0.395   2.117   7.395
   408G11  C0FK27094  -0.375   2.118   7.255
   408G11  C0FM27095  -0.376   2.242   7.185
   408G11  C0FN27096  -0.418   2.361   7.241
   408G11  C0FP27097  -0.448   2.361   7.379
   408G11  C0GO27098  -0.474   2.474   7.448
   408G11  C0GN27099  -0.479   2.481   7.588
   408G11  C0GR27100  -0.463   2.357   7.662
   408G11  C0GS27101  -0.477   2.359   7.799
   408G11  H01Q27102  -0.474   2.268   7.856
   408G11  C0GT27103  -0.493   2.481   7.865
   408G11  H01O27104  -0.493   2.484   7.973
   408G11  C0GU27105  -0.501   2.600   7.790
   408G11  H01P27106  -0.506   2.694   7.842
   408G11  O00L27107  -0.449   2.238   7.593
   408G11  C0GM27108  -0.486   2.603   7.652
   408G11  C0GL27109  -0.483   2.720   7.572
   408G11  H01R27110  -0.491   2.817   7.618
   408G11  C0GK27111  -0.491   2.713   7.433
   408G11  C0GP27112  -0.479   2.805   7.325
   408G11  C0E227113  -0.489   2.733   7.198
   408G11  C0E127114  -0.401   2.799   7.103
   408G11  C0DU27115  -0.295   2.727   7.031
   408G11  C0DT27116  -0.282   2.593   7.001
   408G11  C0E427117  -0.351   2.485   7.050
   408G11  C0E527118  -0.292   2.374   7.001
   408G11  C0DS27119  -0.175   2.548   6.927
   408G11  C0DR27120  -0.061   2.637   6.913
   408G11  C0DD27121   0.059   2.611   6.854
   408G11  C0DC27122   0.132   2.737   6.866
   408G11  C0DP27123   0.061   2.837   6.942
   408G11  C0DA27124   0.096   2.977   6.965
   408G11  C0D927125   0.211   3.061   6.927
   408G11  C0CR27126   0.217   3.202   6.960
   408G11  C0C027127   0.123   3.266   7.034
   408G11  C0BZ27128   0.116   3.402   7.067
   408G11  C0C127129   0.018   3.453   7.152
   408G11  C0C727130   0.002   3.596   7.160
   408G11  C0C627131  -0.091   3.651   7.247
   408G11  C0C927132  -0.110   3.786   7.256
   408G11  C0B827133  -0.204   3.840   7.345
   408G11  C0B727134  -0.222   3.979   7.361
   408G11  C0B627135  -0.303   4.060   7.455
   408G11  C0B527136  -0.307   4.038   7.594
   408G11  H00Z27137  -0.287   3.949   7.653
   408G11  C0B427138  -0.325   4.172   7.658
   408G11  H01027139  -0.328   4.193   7.764
   408G11  C0B327140  -0.334   4.273   7.562
   408G11  C0AP27141  -0.276   4.402   7.542
   408G11  C0AQ27142  -0.233   4.393   7.409
   408G11  C0AR27143  -0.119   4.466   7.369
   408G11  C0AS27144  -0.052   4.417   7.265
   408G11  C0AT27145  -0.059   4.285   7.222
   408G11  C0BA27146  -0.148   4.202   7.278
   408G11  C0AU27147   0.041   4.226   7.143
   408G11  C0BE27148   0.048   4.090   7.126
   408G11  C0BI27149   0.154   4.033   7.059
   408G11  C0BJ27150   0.261   4.114   7.015
   408G11  C0BK27151   0.380   4.064   6.963
   408G11  C0BW27152   0.383   3.931   6.938
   408G11  C0BV27153   0.278   3.847   6.985
   408G11  C0BU27154   0.296   3.709   6.973
   408G11  C0BX27155   0.202   3.622   7.025
   408G11  C0BT27156   0.410   3.659   6.911
   408G11  C0CD27157   0.417   3.517   6.896
   408G11  C0CB27158   0.316   3.432   6.939
   408G11  C0CE27159   0.527   3.467   6.826
   408G11  C0CK27160   0.635   3.550   6.785
   408G11  C0BS27161   0.630   3.684   6.816
   408G11  C0CJ27162   0.739   3.771   6.775
   408G11  C0BP27163   0.727   3.912   6.795
   408G11  C0CI27164   0.820   3.995   6.736
   408G11  C0CH27165   0.775   4.129   6.710
   408G11  H01227166   0.827   4.196   6.643
   408G11  C0BN27167   0.678   4.184   6.796
   408G11  C0CG27168   0.666   4.323   6.808
   408G11  C0CF27169   0.742   4.415   6.732
   408G11  H01327170   0.807   4.384   6.652
   408G11  O00G27171   0.722   4.552   6.746
   408G11  C0AA27172   0.643   4.594   6.849
   408G11  C0A927173   0.647   4.729   6.868
   408G11  H00U27174   0.711   4.787   6.803
   408G11  C0A827175   0.578   4.779   6.973
   408G11  H00V27176   0.577   4.887   6.981
   408G11  C0A727177   0.485   4.702   7.042
   408G11  C0A627178   0.468   4.559   7.012
   408G11  C0A527179   0.364   4.472   7.053
   408G11  C0A427180   0.257   4.526   7.126
   408G11  C0A327181   0.223   4.633   7.214
   408G11  C0A227182   0.316   4.736   7.248
   408G11  C0A127183   0.277   4.847   7.335
   408G11  C0A027184   0.174   4.869   7.435
   408G11  C09Z27185   0.199   4.988   7.510
   408G11  C09Y27186   0.114   5.012   7.623
   408G11  H00Y27187   0.113   5.102   7.684
   408G11  C09X27188   0.014   4.917   7.663
   408G11  C09W27189  -0.053   4.943   7.787
   408G11  H00R27190  -0.032   5.034   7.841
   408G11  C0AX27191  -0.145   4.849   7.840
   408G11  H00S27192  -0.193   4.858   7.936
   408G11  C0AW27193  -0.166   4.731   7.764
   408G11  H00T27194  -0.236   4.661   7.807
   408G11  C0AN27195  -0.101   4.708   7.643
   408G11  C0AO27196  -0.132   4.596   7.568
   408G11  C0AM27197  -0.011   4.800   7.590
   408G11  C0B227198   0.300   5.087   7.481
   408G11  O00D27199   0.324   5.180   7.558
   408G11  C0B127200   0.373   5.074   7.361
   408G11  H00W27201   0.429   5.157   7.321
   408G11  C0AL27202   0.068   4.776   7.470
   408G11  C0AK27203   0.032   4.659   7.399
   408G11  C0B027204   0.374   4.946   7.302
   408G11  C0AZ27205   0.459   4.905   7.194
   408G11  H00X27206   0.530   4.970   7.145
   408G11  C0AJ27207   0.096   4.606   7.286
   408G11  C0AH27208   0.146   4.442   7.130
   408G11  C0AE27209   0.360   4.339   7.010
   408G11  C0AD27210   0.468   4.284   6.939
   408G11  C0AY27211   0.426   4.772   7.161
   408G11  C0AB27212   0.559   4.506   6.920
   408G11  C0AC27213   0.564   4.372   6.889
   408G11  C0BM27214   0.591   4.094   6.856
   408G11  C0CM27215   0.955   3.948   6.720
   408G11  C09M27216   0.979   3.807   6.695
   408G11  C09827217   1.117   3.763   6.683
   408G11  C08R27218   1.171   3.646   6.617
   408G11  C08Q27219   1.307   3.645   6.603
   408G11  C08P27220   1.407   3.576   6.521
   408G11  C08Y27221   1.533   3.642   6.511
   408G11  C09727222   1.542   3.773   6.546
   408G11  C09627223   1.605   3.847   6.455
   408G11  C09027224   1.680   3.754   6.386
   408G11  C09527225   1.765   3.772   6.276
   408G11  C09427226   1.850   3.668   6.217
   408G11  C08J27227   1.825   3.528   6.196
   408G11  C08I27228   1.863   3.489   6.068
   408G11  C08H27229   1.785   3.373   6.027
   408G11  C08G27230   1.686   3.356   6.139
   408G11  C08F27231   1.585   3.258   6.180
   408G11  C08E27232   1.586   3.125   6.128
   408G11  C05927233   1.690   3.065   6.053
   408G11  C05827234   1.693   2.923   6.023
   408G11  C05727235   1.788   2.848   5.950
   408G11  C05627236   1.893   2.923   5.898
   408G11  C05527237   1.908   3.056   5.929
   408G11  C05427238   1.996   3.119   5.840
   408G11  C05327239   2.010   3.025   5.732
   408G11  C05227240   2.055   3.046   5.596
   408G11  C05127241   2.092   3.178   5.552
   408G11  C05U27242   2.083   3.306   5.630
   408G11  C05T27243   2.027   3.339   5.754
   408G11  C06K27244   2.088   3.461   5.793
   408G11  H00J27245   2.083   3.492   5.896
   408G11  C06L27246   2.165   3.524   5.681
   408G11  H00I27247   2.211   3.621   5.679
   408G11  C05V27248   2.165   3.414   5.588
   408G11  C06J27249   2.228   3.418   5.466
   408G11  H00K27250   2.268   3.514   5.437
   408G11  C05X27251   2.229   3.305   5.385
   408G11  C06I27252   2.281   3.311   5.255
   408G11  H00L27253   2.325   3.406   5.228
   408G11  C04Z27254   2.281   3.205   5.166
   408G11  C06H27255   2.339   3.214   5.035
   408G11  H00H27256   2.395   3.303   5.011
   408G11  C04Y27257   2.337   3.094   4.947
   408G11  C06G27258   2.405   3.100   4.819
   408G11  O00927259   2.466   3.196   4.775
   408G11  O00827260   2.419   2.982   4.754
   408G11  C04P27261   2.344   2.872   4.786
   408G11  C04J27262   2.343   2.748   4.706
   408G11  C04Q27263   2.408   2.716   4.580
   408G11  H00E27264   2.474   2.794   4.545
   408G11  C04M27265   2.394   2.593   4.505
   408G11  C04R27266   2.448   2.555   4.377
   408G11  H00F27267   2.529   2.613   4.336
   408G11  C04S27268   2.403   2.448   4.314
   408G11  H00G27269   2.439   2.436   4.212
   408G11  O00727270   2.299   2.372   4.349
   408G11  C03V27271   2.251   2.395   4.474
   408G11  C03U27272   2.159   2.303   4.525
   408G11  O00627273   2.111   2.210   4.439
   408G11  C03F27274   2.030   2.116   4.488
   408G11  C03E27275   1.981   2.119   4.618
   408G11  C03D27276   2.031   2.209   4.711
   408G11  C03C27277   1.987   2.213   4.842
   408G11  C03B27278   1.904   2.102   4.879
   408G11  C03A27279   1.862   2.103   5.011
   408G11  C03927280   1.897   2.196   5.110
   408G11  C03827281   1.819   2.154   5.227
   408G11  C03727282   1.747   2.038   5.188
   408G11  C03627283   1.669   1.968   5.269
   408G11  C02R27284   1.585   1.860   5.240
   408G11  C03527285   1.513   1.851   5.362
   408G11  C03R27286   1.549   1.948   5.449
   408G11  C03S27287   1.466   1.992   5.548
   408G11  C04927288   1.498   2.113   5.609
   408G11  C04827289   1.615   2.182   5.557
   408G11  C03P27290   1.685   2.150   5.434
   408G11  C04727291   1.647   2.295   5.637
   408G11  C04627292   1.758   2.374   5.622
   408G11  C04527293   1.853   2.383   5.519
   408G11  C03T27294   1.874   2.317   5.398
   408G11  C04427295   1.978   2.380   5.321
   408G11  C04327296   2.024   2.489   5.401
   408G11  C04227297   2.055   2.597   5.317
   408G11  C04127298   2.048   2.543   5.183
   408G11  C04027299   2.075   2.610   5.061
   408G11  C03Z27300   2.112   2.553   4.936
   408G11  C04H27301   2.185   2.651   4.865
   408G11  C04G27302   2.191   2.764   4.943
   408G11  C03N27303   2.097   2.424   4.872
   408G11  C03Y27304   2.157   2.416   4.741
   408G11  C03X27305   2.229   2.521   4.678
   408G11  C04F27306   2.125   2.745   5.057
   408G11  C04E27307   2.151   2.850   5.153
   408G11  C04O27308   2.208   2.976   5.116
   408G11  C04D27309   2.123   2.843   5.292
   408G11  C04V27310   2.128   2.958   5.376
   408G11  C04W27311   2.166   3.087   5.335
   408G11  C04C27312   2.070   2.735   5.368
   408G11  C04L27313   2.043   2.797   5.501
   408G11  C04U27314   1.993   2.717   5.614
   408G11  C05Q27315   1.945   2.770   5.730
   408G11  C05P27316   1.861   2.680   5.798
   408G11  C04T27317   1.842   2.575   5.712
   408G11  C04B27318   1.936   2.589   5.608
   408G11  C03M27319   2.008   2.403   5.182
   408G11  C04A27320   1.943   2.493   5.513
   408G11  C05H27321   1.747   2.473   5.717
   408G11  C05G27322   1.632   2.444   5.801
   408G11  C05F27323   1.600   2.522   5.916
   408G11  C05E27324   1.469   2.518   5.974
   408G11  C05L27325   1.353   2.430   5.975
   408G11  C05K27326   1.340   2.318   5.889
   408G11  C05J27327   1.431   2.270   5.786
   408G11  C06627328   1.226   2.238   5.919
   408G11  C06527329   1.135   2.271   6.024
   408G11  C06427330   1.147   2.395   6.095
   408G11  C06N27331   1.019   2.193   6.045
   408G11  C06927332   0.990   2.086   5.959
   408G11  C06P27333   0.874   2.005   5.975
   408G11  C06R27334   0.839   1.901   5.885
   408G11  C06B27335   0.932   1.869   5.790
   408G11  C06S27336   0.900   1.766   5.700
   408G11  C02G27337   0.994   1.732   5.601
   408G11  C02F27338   0.948   1.634   5.504
   408G11  C02727339   0.820   1.586   5.501
   408G11  C02627340   0.778   1.498   5.404
   408G11  C00E27341   0.646   1.452   5.392
   408G11  C00D27342   0.607   1.382   5.281
   408G11  C00C27343   0.474   1.356   5.272
   408G11  C00B27344   0.377   1.395   5.360
   408G11  C01527345   0.420   1.461   5.476
   408G11  C07F27346   0.323   1.509   5.563
   408G11  C07E27347   0.369   1.578   5.676
   408G11  C06W27348   0.504   1.613   5.685
   408G11  C06V27349   0.598   1.574   5.591
   408G11  C06X27350   0.549   1.695   5.787
   408G11  C07B27351   0.455   1.741   5.878
   408G11  C07C27352   0.319   1.701   5.872
   408G11  C0FU27353   0.223   1.753   5.965
   408G11  C0F727354   0.088   1.731   5.944
   408G11  C0F627355  -0.003   1.774   6.042
   408G11  C0F827356  -0.138   1.760   6.018
   408G11  C0F927357  -0.228   1.810   6.111
   408G11  C0FA27358  -0.363   1.802   6.083
   408G11  C0FZ27359  -0.406   1.748   5.961
   408G11  C0G027360  -0.541   1.741   5.933
   408G11  C0GD27361  -0.642   1.777   6.024
   408G11  C0FC27362  -0.596   1.829   6.147
   408G11  C0GH27363  -0.689   1.865   6.247
   408G11  C0EY27364  -0.647   1.927   6.366
   408G11  C0EX27365  -0.739   1.965   6.467
   408G11  C0EW27366  -0.692   2.014   6.586
   408G11  C0FR27367  -0.785   2.054   6.688
   408G11  H01D27368  -0.760   2.084   6.789
   408G11  C0FS27369  -0.923   2.033   6.672
   408G11  H01C27370  -0.991   2.073   6.746
   408G11  C0GJ27371  -0.963   1.974   6.557
   408G11  H01N27372  -1.067   1.946   6.549
   408G11  C0EV27373  -0.557   2.021   6.607
   408G11  C0FT27374  -0.507   2.057   6.736
   408G11  H01E27375  -0.561   2.063   6.830
   408G11  C0EU27376  -0.471   2.004   6.502
   408G11  C0ET27377  -0.333   2.028   6.513
   408G11  C0EI27378  -0.238   2.003   6.424
   408G11  C0F127379  -0.282   1.933   6.312
   408G11  C0F027380  -0.421   1.915   6.288
   408G11  C0EH27381  -0.103   2.039   6.444
   408G11  C0EG27382  -0.066   2.126   6.558
   408G11  C0EJ27383  -0.013   1.993   6.349
   408G11  C0F327384  -0.051   1.914   6.242
   408G11  C0EK27385   0.123   2.025   6.368
   408G11  C0EL27386   0.163   2.123   6.463
   408G11  C0EM27387   0.303   2.164   6.446
   408G11  C0EN27388   0.385   2.089   6.360
   408G11  C07I27389   0.509   2.153   6.346
   408G11  C07427390   0.606   2.119   6.252
   408G11  C07327391   0.718   2.199   6.242
   408G11  C07227392   0.808   2.158   6.144
   408G11  C07527393   0.574   2.010   6.167
   408G11  C07627394   0.443   1.955   6.173
   408G11  C07827395   0.402   1.867   6.079
   408G11  C07G27396   0.663   1.974   6.076
   408G11  C07027397   0.625   1.874   5.990
   408G11  C07Z27398   0.510   2.268   6.423
   408G11  C07727399   0.346   2.006   6.261
   408G11  C0EO27400   0.212   1.969   6.267
   408G11  C0F427401   0.172   1.879   6.165
   408G11  C0EQ27402  -0.289   2.073   6.636
   408G11  C0FQ27403  -0.874   1.930   6.456
   408G11  C0GI27404  -0.913   1.865   6.339
   408G11  H01L27405  -1.016   1.835   6.326
   408G11  C0EZ27406  -0.512   1.948   6.386
   408G11  C0GG27407  -0.827   1.837   6.230
   408G11  C0GF27408  -0.872   1.777   6.107
   408G11  H01M27409  -0.978   1.771   6.088
   408G11  C0GE27410  -0.778   1.756   6.005
   408G11  H01K27411  -0.814   1.713   5.913
   408G11  O00J27412  -0.588   1.688   5.817
   408G11  C0GA27413  -0.496   1.664   5.716
   408G11  C0G927414  -0.533   1.639   5.584
   408G11  H01H27415  -0.636   1.650   5.553
   408G11  C0G827416  -0.444   1.594   5.485
   408G11  C0G727417  -0.478   1.559   5.349
   408G11  H01I27418  -0.579   1.580   5.315
   408G11  O00I27419  -0.395   1.506   5.262
   408G11  C0G627420  -0.275   1.482   5.310
   408G11  H01J27421  -0.220   1.413   5.247
   408G11  C02D27422  -0.224   1.519   5.435
   408G11  C02C27423  -0.089   1.509   5.473
   408G11  C01727424   0.010   1.448   5.379
   408G11  C01627425   0.146   1.444   5.416
   408G11  O00127426  -0.019   1.424   5.251
   408G11  C01827427   0.067   1.379   5.159
   408G11  C00927428   0.200   1.357   5.191
   408G11  C00827429   0.303   1.313   5.104
   408G11  C00727430   0.312   1.280   4.957
   408G11  C00627431   0.201   1.259   4.876
   408G11  C00527432   0.209   1.206   4.744
   408G11  C00427433   0.327   1.166   4.668
   408G11  C00327434   0.466   1.182   4.691
   408G11  C00227435   0.555   1.163   4.579
   408G11  C00P27436   0.688   1.211   4.591
   408G11  C00O27437   0.773   1.214   4.484
   408G11  C00N27438   0.907   1.257   4.488
   408G11  C01027439   0.985   1.272   4.374
   408G11  C01127440   1.116   1.323   4.383
   408G11  C01Q27441   1.196   1.339   4.264
   408G11  C01U27442   1.137   1.306   4.139
   408G11  C01227443   0.999   1.270   4.131
   408G11  H00027444   0.947   1.258   4.037
   408G11  C01V27445   1.222   1.316   4.029
   408G11  H00727446   1.180   1.307   3.930
   408G11  O00527447   1.353   1.359   4.036
   408G11  C01W27448   1.404   1.391   4.159
   408G11  C03127449   1.537   1.442   4.161
   408G11  C03227450   1.591   1.470   4.285
   408G11  H00A27451   1.691   1.509   4.294
   408G11  C03327452   1.521   1.440   4.404
   408G11  H00B27453   1.580   1.461   4.492
   408G11  C01O27454   1.382   1.409   4.402
   408G11  C01N27455   1.303   1.407   4.515
   408G11  C01M27456   1.346   1.452   4.645
   408G11  C01L27457   1.439   1.548   4.703
   408G11  C01K27458   1.424   1.525   4.840
   408G11  C01Y27459   1.467   1.616   4.939
   408G11  C02I27460   1.557   1.717   4.905
   408G11  C02N27461   1.609   1.804   5.005
   408G11  C02M27462   1.703   1.903   4.967
   408G11  C02L27463   1.750   1.909   4.835
   408G11  C02K27464   1.686   1.833   4.734
   408G11  C02U27465   1.726   1.855   4.599
   408G11  C02V27466   1.829   1.936   4.566
   408G11  C03H27467   1.888   1.933   4.433
   408G11  H00C27468   1.856   1.859   4.361
   408G11  C02W27469   1.640   1.811   4.500
   408G11  C02X27470   1.539   1.726   4.537
   408G11  C02Y27471   1.456   1.729   4.420
   408G11  H00827472   1.365   1.674   4.400
   408G11  C02Z27473   1.522   1.810   4.317
   408G11  O00427474   1.491   1.838   4.204
   408G11  O00327475   1.630   1.855   4.367
   408G11  C02J27476   1.587   1.737   4.766
   408G11  C01Z27477   1.407   1.604   5.063
   408G11  C02027478   1.290   1.526   5.083
   408G11  C01I27479   1.246   1.441   4.983
   408G11  C01H27480   1.118   1.399   4.972
   408G11  C00K27481   1.069   1.340   4.858
   408G11  C01S27482   1.146   1.340   4.744
   408G11  C01427483   1.090   1.328   4.617
   408G11  C00J27484   0.934   1.306   4.848
   408G11  C00I27485   0.859   1.322   4.963
   408G11  C00H27486   0.908   1.378   5.078
   408G11  C00G27487   0.824   1.402   5.184
   408G11  C00S27488   0.730   1.283   4.950
   408G11  C00T27489   0.654   1.305   5.057
   408G11  C00U27490   0.515   1.274   5.045
   408G11  C00R27491   0.665   1.248   4.825
   408G11  C00L27492   0.878   1.277   4.722
   408G11  C02827493   1.038   1.424   5.078
   408G11  C02327494   1.080   1.494   5.190
   408G11  C02427495   0.991   1.520   5.297
   408G11  C02127496   1.207   1.548   5.194
   408G11  C02227497   1.248   1.631   5.294
   408G11  C02H27498   1.161   1.655   5.401
   408G11  C03027499   1.201   1.756   5.497
   408G11  C03427500   1.313   1.823   5.478
   408G11  C02P27501   1.370   1.695   5.280
   408G11  C02B27502   1.444   1.694   5.160
   408G11  C01J27503   1.324   1.436   4.869
   408G11  C01X27504   1.517   1.665   4.664
   408G11  C01T27505   1.269   1.401   4.749
   408G11  H00927506   1.586   1.465   4.068
   408G11  C01P27507   1.327   1.381   4.273
   408G11  C01R27508   1.170   1.354   4.506
   408G11  C00Z27509   0.922   1.243   4.250
   408G11  O00027510   0.792   1.186   4.244
   408G11  C00M27511   0.962   1.285   4.611
   408G11  C00Y27512   0.722   1.174   4.358
   408G11  C01327513   0.610   1.099   4.350
   408G11  H00127514   0.592   1.056   4.253
   408G11  C00Q27515   0.743   1.249   4.711
   408G11  C00127516   0.516   1.105   4.459
   408G11  C00027517   0.387   1.063   4.451
   408G11  H00627518   0.356   0.997   4.371
   408G11  C00W27519   0.526   1.228   4.806
   408G11  C01G27520   0.297   1.094   4.549
   408G11  H00527521   0.198   1.061   4.522
   408G11  C01C27522   0.072   1.212   4.690
   408G11  H00227523   0.040   1.177   4.593
   408G11  C01B27524  -0.010   1.274   4.791
   408G11  C01D27525  -0.150   1.303   4.789
   408G11  H00327526  -0.205   1.296   4.697
   408G11  C01E27527  -0.203   1.368   4.897
   408G11  H00427528  -0.305   1.403   4.904
   408G11  O00227529  -0.125   1.396   5.010
   408G11  C01A27530   0.068   1.304   4.905
   408G11  C00V27531   0.446   1.252   4.923
   408G11  C01927532   0.011   1.368   5.023
   408G11  C02E27533  -0.042   1.552   5.596
   408G11  C0FX27534  -0.134   1.603   5.686
   408G11  C0FW27535  -0.090   1.656   5.807
   408G11  C0GB27536  -0.268   1.614   5.651
   408G11  C0G327537   0.092   1.552   5.625
   408G11  C07H27538   0.137   1.612   5.741
   408G11  C0GC27539  -0.311   1.574   5.527
   408G11  C0G227540  -0.357   1.657   5.745
   408G11  C0G127541  -0.317   1.705   5.866
   408G11  C0FB27542  -0.459   1.845   6.172
   408G11  C0F227543  -0.189   1.889   6.221
   408G11  C0FY27544  -0.180   1.711   5.896
   408G11  C0F527545   0.036   1.854   6.149
   408G11  C0FV27546   0.045   1.661   5.834
   408G11  C07927547   0.266   1.830   6.070
   408G11  C07A27548   0.497   1.820   5.987
   408G11  C06Y27549   0.678   1.749   5.793
   408G11  C07D27550   0.276   1.628   5.766
   408G11  C01F27551   0.186   1.504   5.536
   408G11  C00A27552   0.241   1.395   5.324
   408G11  C00X27553   0.430   1.302   5.149
   408G11  C00F27554   0.693   1.361   5.173
   408G11  C02927555   0.555   1.488   5.489
   408G11  C02527556   0.866   1.467   5.300
   408G11  C06U27557   0.730   1.622   5.599
   408G11  C02A27558   1.035   1.602   5.407
   408G11  C05Y27559   1.117   1.792   5.595
   408G11  C05Z27560   1.149   1.898   5.686
   408G11  C06027561   1.268   1.970   5.671
   408G11  C06227562   1.292   2.086   5.741
   408G11  C06T27563   0.771   1.711   5.699
   408G11  C06A27564   1.052   1.940   5.781
   408G11  C06Z27565   0.715   1.838   5.890
   408G11  C06Q27566   0.781   2.041   6.069
   408G11  C06827567   1.077   2.052   5.858
   408G11  C06727568   1.198   2.128   5.837
   408G11  C06327569   1.257   2.475   6.071
   408G11  C06C27570   1.262   2.599   6.138
   408G11  C06D27571   1.362   2.686   6.124
   408G11  C06E27572   1.383   2.815   6.177
   408G11  C07Q27573   1.282   2.861   6.250
   408G11  C07P27574   1.171   2.773   6.274
   408G11  C07T27575   1.064   2.815   6.350
   408G11  C07U27576   0.963   2.732   6.387
   408G11  C07V27577   0.859   2.771   6.469
   408G11  C08427578   0.861   2.904   6.515
   408G11  C08C27579   0.957   2.995   6.465
   408G11  C08B27580   0.954   3.128   6.509
   408G11  C08A27581   1.065   3.205   6.477
   408G11  C08927582   1.172   3.164   6.404
   408G11  C08827583   1.282   3.248   6.391
   408G11  C08727584   1.388   3.211   6.316
   408G11  C08627585   1.382   3.080   6.257
   408G11  C08X27586   1.278   3.378   6.440
   408G11  C08T27587   1.150   3.431   6.493
   408G11  C08D27588   1.171   3.032   6.364
   408G11  C08U27589   1.053   3.337   6.515
   408G11  C08V27590   0.941   3.384   6.582
   408G11  C0CY27591   0.837   3.304   6.625
   408G11  C0CX27592   0.737   3.364   6.695
   408G11  C0CW27593   0.640   3.280   6.738
   408G11  C0CV27594   0.653   3.143   6.712
   408G11  C0D427595   0.754   3.090   6.629
   408G11  C0CU27596   0.551   3.059   6.756
   408G11  C0CT27597   0.435   3.103   6.825
   408G11  C0CS27598   0.431   3.243   6.850
   408G11  C0D627599   0.560   2.928   6.715
   408G11  C0EC27600   0.655   2.877   6.631
   408G11  C07X27601   0.652   2.741   6.589
   408G11  C0DL27602   0.450   2.845   6.739
   408G11  C0DK27603   0.455   2.712   6.701
   408G11  C0DN27604   0.345   2.655   6.753
   408G11  C0D827605   0.341   2.877   6.817
   408G11  C08W27606   0.959   3.520   6.608
   408G11  C0CQ27607   0.858   3.581   6.691
   408G11  C09327608   0.853   3.175   6.585
   408G11  C09227609   0.758   2.959   6.593
   408G11  C08527610   1.066   2.949   6.390
   408G11  C07S27611   1.282   2.990   6.295
   408G11  C06F27612   1.487   2.900   6.144
   408G11  C07O27613   1.159   2.642   6.219
   408G11  C07N27614   1.053   2.562   6.244
   408G11  C05D27615   1.466   2.641   6.052
   408G11  C05C27616   1.582   2.715   6.039
   408G11  C05N27617   1.667   2.646   5.952
   408G11  C05M27618   1.563   2.338   5.748
   408G11  C05I27619   1.408   2.157   5.713
   408G11  C06127620   1.348   1.924   5.569
   408G11  C02Q27621   1.393   1.787   5.373
   408G11  C02O27622   1.547   1.785   5.128
   408G11  C03Q27623   1.642   2.024   5.387
   408G11  C03O27624   1.788   2.214   5.356
   408G11  C03L27625   1.976   2.313   5.073
   408G11  C02S27626   1.764   2.002   5.058
   408G11  C02T27627   1.848   2.008   4.793
   408G11  C03K27628   2.013   2.321   4.930
   408G11  C03I27629   1.890   2.019   4.663
   408G11  C03G27630   1.992   2.018   4.398
   408G11  H00D27631   2.040   2.027   4.302
   408G11  C03J27632   2.115   2.309   4.662
   408G11  C03W27633   2.291   2.506   4.556
   408G11  C04I27634   2.264   2.640   4.746
   408G11  C04K27635   2.267   2.872   4.904
   408G11  C04N27636   2.266   2.982   4.990
   408G11  C04X27637   2.220   3.088   5.206
   408G11  C05027638   2.162   3.191   5.427
   408G11  C05W27639   2.075   2.940   5.503
   408G11  C05S27640   1.957   3.252   5.842
   408G11  C05R27641   1.960   2.901   5.778
   408G11  C05O27642   1.774   2.717   5.902
   408G11  C05B27643   1.593   2.850   6.078
   408G11  C05A27644   1.801   3.130   5.986
   408G11  C07R27645   1.486   3.042   6.179
   408G11  C08N27646   1.490   3.300   6.279
   408G11  C08M27647   1.499   3.423   6.349
   408G11  C08L27648   1.609   3.508   6.329
   408G11  C09127649   1.838   3.264   5.943
   408G11  C09K27650   1.886   3.619   5.999
   408G11  H00M27651   1.895   3.628   5.892
   408G11  C08K27652   1.699   3.466   6.224
   408G11  C09J27653   1.905   3.724   6.098
   408G11  C09I27654   1.890   3.866   6.108
   408G11  C09L27655   1.940   3.973   6.029
   408G11  H00N27656   2.011   3.946   5.952
   408G11  C09Q27657   1.897   4.094   6.054
   408G11  H00O27658   1.947   4.170   5.996
   408G11  O00B27659   1.805   4.130   6.153
   408G11  C09G27660   1.749   4.034   6.241
   408G11  C09F27661   1.648   4.072   6.332
   408G11  O00A27662   1.626   4.209   6.336
   408G11  C09P27663   1.496   4.238   6.355
   408G11  H00P27664   1.447   4.319   6.302
   408G11  C09O27665   1.427   4.179   6.464
   408G11  C09D27666   1.466   4.047   6.496
   408G11  C09C27667   1.402   3.956   6.589
   408G11  C09N27668   1.271   3.958   6.647
   408G11  C09T27669   1.175   4.053   6.624
   408G11  C09S27670   1.213   4.189   6.600
   408G11  C0CP27671   1.138   4.261   6.693
   408G11  C0CN27672   1.047   4.193   6.765
   408G11  C0CO27673   0.985   4.249   6.873
   408G11  H01427674   0.912   4.200   6.935
   408G11  C0CZ27675   1.004   4.389   6.889
   408G11  H01527676   0.954   4.445   6.967
   408G11  C0D027677   1.079   4.469   6.796
   408G11  C0G527678   1.093   4.613   6.794
   408G11  H01F27679   1.031   4.677   6.855
   408G11  C0G427680   1.185   4.668   6.709
   408G11  H01G27681   1.187   4.776   6.713
   408G11  O00H27682   1.270   4.600   6.623
   408G11  C0D227683   1.240   4.468   6.610
   408G11  C09V27684   1.324   4.387   6.531
   408G11  H00Q27685   1.406   4.441   6.486
   408G11  C0D127686   1.151   4.403   6.695
   408G11  C09R27687   1.322   4.245   6.532
   408G11  C09H27688   1.799   3.899   6.213
   408G11  C09E27689   1.577   3.988   6.424
   408G11  C09B27690   1.446   3.828   6.618
   408G11  C08Z27691   1.605   3.626   6.403
   408G11  C08O27692   1.389   3.462   6.432
   408G11  C09A27693   1.352   3.750   6.685
   408G11  C08S27694   1.092   3.548   6.555
   408G11  C09927695   1.241   3.833   6.717
   408G11  C09U27696   1.049   4.059   6.703
   408G11  C0BO27697   0.606   3.962   6.840
   408G11  C0CL27698   0.859   3.719   6.716
   408G11  C0D327699   0.744   3.499   6.720
   408G11  C0D527700   0.534   3.329   6.813
   408G11  C0BR27701   0.515   3.739   6.873
   408G11  C0BQ27702   0.503   3.875   6.885
   408G11  C0BL27703   0.476   4.151   6.917
   408G11  C0AF27704   0.256   4.256   7.033
   408G11  C0BH27705   0.167   3.895   7.046
   408G11  C0BG27706   0.073   3.812   7.102
   408G11  C0BD27707  -0.043   4.008   7.195
   408G11  C0AG27708   0.140   4.308   7.092
   408G11  C0AI27709   0.055   4.492   7.220
   408G11  C0AV27710  -0.076   4.580   7.438
   408G11  C0BB27711  -0.253   4.264   7.353
   408G11  O00C27712  -0.227   4.508   7.614
   408G11  C0BC27713  -0.343   4.198   7.436
   408G11  C0B927714  -0.142   4.063   7.278
   408G11  O00E27715  -0.276   3.759   7.421
   408G11  C0CA27716  -0.275   3.623   7.413
   408G11  O00F27717  -0.345   3.552   7.480
   408G11  C0BF27718  -0.024   3.868   7.185
   408G11  C0C527719  -0.179   3.564   7.318
   408G11  C0C427720  -0.180   3.423   7.296
   408G11  H01127721  -0.248   3.348   7.334
   408G11  C0C827722   0.093   3.676   7.094
   408G11  C0C227723  -0.075   3.371   7.213
   408G11  C0C327724  -0.061   3.234   7.178
   408G11  C0DY27725  -0.154   3.137   7.213
   408G11  H01627726  -0.249   3.145   7.264
   408G11  C0DX27727  -0.108   3.018   7.148
   408G11  C0DW27728  -0.206   2.920   7.120
   408G11  C0BY27729   0.213   3.486   7.011
   408G11  C0DB27730   0.028   3.183   7.089
   408G11  C0CC27731   0.323   3.291   6.920
   408G11  C0D727732   0.329   3.015   6.865
   408G11  C0DZ27733   0.009   3.049   7.063
   408G11  C0DM27734   0.268   2.752   6.825
   408G11  C0DQ27735  -0.065   2.771   6.968
   408G11  C0DV27736  -0.187   2.813   7.027
   408G11  C0E027737  -0.343   2.913   7.170
   408G11  C0FO27738  -0.482   2.594   7.232
   408G11  C0E327739  -0.377   2.912   7.310
   408G11  H01727740  -0.320   2.946   7.395
   408G11  C0GV27741  -0.503   2.588   7.371
   408G11  C0ES27742  -0.435   2.479   7.164
   408G11  C0GQ27743  -0.431   2.241   7.455
   408G11  C0FJ27744  -0.350   2.000   7.184
   408G11  C0ED27745  -0.334   2.242   7.048
   408G11  C0ER27746  -0.375   2.086   6.742
   408G11  C0EP27747  -0.167   2.131   6.660
   408G11  C0E627748  -0.185   2.403   6.910
   408G11  C0DE27749   0.098   2.476   6.802
   408G11  C0EA27750   0.071   2.174   6.559
   408G11  C0DF27751   0.231   2.439   6.772
   408G11  C08027752   0.385   2.268   6.492
   408G11  C0DO27753   0.335   2.525   6.722
   408G11  C0DJ27754   0.560   2.652   6.627
   408G11  C07K27755   0.630   2.352   6.411
   408G11  C07W27756   0.756   2.690   6.507
   408G11  C08327757   0.958   2.604   6.333
   408G11  C07J27758   0.729   2.318   6.320
   408G11  C06O27759   0.922   2.235   6.136
   408G11  C06M27760   1.049   2.435   6.181
   418G11  C07127761   3.193  10.663   6.779
   418G11  C07L27762   3.105  10.555   6.806
   418G11  C07M27763   3.123  10.479   6.921
   418G11  C07Y27764   3.039  10.362   6.945
   418G11  C08127765   2.941  10.321   6.850
   418G11  C08227766   2.856  10.210   6.886
   418G11  C0DI27767   2.750  10.142   6.806
   418G11  C0DH27768   2.704  10.155   6.673
   418G11  C0DG27769   2.597  10.066   6.648
   418G11  C0E927770   2.570   9.986   6.531
   418G11  C0E827771   2.505   9.862   6.591
   418G11  C0E727772   2.403   9.776   6.526
   418G11  C0EB27773   2.356   9.809   6.397
   418G11  C0EF27774   2.224   9.775   6.346
   418G11  C0EE27775   2.108   9.713   6.413
   418G11  C0FD27776   1.981   9.762   6.384
   418G11  C0FE27777   1.951   9.885   6.319
   418G11  H01B27778   2.024   9.948   6.270
   418G11  C0FF27779   1.821   9.941   6.310
   418G11  H01A27780   1.814  10.034   6.256
   418G11  C0FG27781   1.713   9.875   6.375
   418G11  H01827782   1.614   9.915   6.365
   418G11  C0FH27783   1.739   9.745   6.426
   418G11  C0FI27784   1.638   9.653   6.480
   418G11  H01927785   1.535   9.683   6.485
   418G11  O00K27786   1.659   9.524   6.530
   418G11  C0FL27787   1.790   9.483   6.530
   418G11  C0FK27788   1.901   9.568   6.500
   418G11  C0FM27789   2.030   9.519   6.523
   418G11  C0FN27790   2.045   9.385   6.577
   418G11  C0FP27791   1.935   9.304   6.605
   418G11  C0GO27792   1.937   9.185   6.674
   418G11  C0GN27793   1.827   9.110   6.721
   418G11  C0GR27794   1.703   9.154   6.668
   418G11  C0GS27795   1.581   9.095   6.717
   418G11  H01Q27796   1.488   9.137   6.679
   418G11  C0GT27797   1.589   8.982   6.804
   418G11  H01O27798   1.501   8.928   6.836
   418G11  C0GU27799   1.712   8.950   6.857
   418G11  H01P27800   1.701   8.873   6.932
   418G11  O00L27801   1.699   9.268   6.591
   418G11  C0GM27802   1.839   9.011   6.818
   418G11  C0GL27803   1.971   8.989   6.870
   418G11  H01R27804   1.998   8.920   6.949
   418G11  C0GK27805   2.083   9.055   6.812
   418G11  C0GP27806   2.225   9.059   6.841
   418G11  C0E227807   2.289   9.138   6.731
   418G11  C0E127808   2.405   9.203   6.783
   418G11  C0DU27809   2.423   9.347   6.778
   418G11  C0DT27810   2.388   9.441   6.684
   418G11  C0E427811   2.276   9.430   6.608
   418G11  C0E527812   2.262   9.558   6.549
   418G11  C0DS27813   2.427   9.573   6.689
   418G11  C0DR27814   2.504   9.616   6.802
   418G11  C0DD27815   2.556   9.740   6.828
   418G11  C0DC27816   2.623   9.727   6.957
   418G11  C0DP27817   2.614   9.592   7.014
   418G11  C0DA27818   2.666   9.535   7.141
   418G11  C0D927819   2.765   9.590   7.242
   418G11  C0CR27820   2.817   9.507   7.345
   418G11  C0C027821   2.771   9.380   7.372
   418G11  C0BZ27822   2.820   9.286   7.459
   418G11  C0C127823   2.755   9.166   7.475
   418G11  C0C727824   2.806   9.072   7.566
   418G11  C0C627825   2.749   8.947   7.587
   418G11  C0C927826   2.809   8.858   7.672
   418G11  C0B827827   2.754   8.731   7.686
   418G11  C0B727828   2.819   8.625   7.752
   418G11  C0B627829   2.773   8.487   7.788
   418G11  C0B527830   2.638   8.447   7.826
   418G11  H00Z27831   2.544   8.498   7.815
   418G11  C0B427832   2.650   8.330   7.918
   418G11  H01027833   2.569   8.283   7.971
   418G11  C0B327834   2.791   8.301   7.936
   418G11  C0AP27835   2.875   8.291   8.053
   418G11  C0AQ27836   2.980   8.376   8.026
   418G11  C0AR27837   3.080   8.413   8.119
   418G11  C0AS27838   3.150   8.523   8.080
   418G11  C0AT27839   3.107   8.612   7.986
   418G11  C0BA27840   3.016   8.573   7.897
   418G11  C0AU27841   3.145   8.744   7.981
   418G11  C0BE27842   3.088   8.836   7.898
   418G11  C0BI27843   3.128   8.968   7.905
   418G11  C0BJ27844   3.219   9.007   8.000
   418G11  C0BK27845   3.259   9.140   8.007
   418G11  C0BW27846   3.211   9.230   7.913
   418G11  C0BV27847   3.118   9.189   7.815
   418G11  C0BU27848   3.067   9.277   7.723
   418G11  C0BX27849   2.967   9.235   7.635
   418G11  C0BT27850   3.118   9.407   7.714
   418G11  C0CD27851   3.070   9.494   7.617
   418G11  C0CB27852   2.968   9.456   7.534
   418G11  C0CE27853   3.119   9.627   7.615
   418G11  C0CK27854   3.217   9.666   7.705
   418G11  C0BS27855   3.259   9.583   7.811
   418G11  C0CJ27856   3.358   9.626   7.906
   418G11  C0BP27857   3.411   9.534   8.002
   418G11  C0CI27858   3.502   9.576   8.096
   418G11  C0CH27859   3.570   9.467   8.158
   418G11  H01227860   3.663   9.506   8.198
   418G11  C0BN27861   3.515   9.335   8.174
   418G11  C0CG27862   3.554   9.246   8.273
   418G11  C0CF27863   3.658   9.285   8.362
   418G11  H01327864   3.716   9.375   8.347
   418G11  O00G27865   3.684   9.209   8.475
   418G11  C0AA27866   3.629   9.085   8.487
   418G11  C0A927867   3.691   9.001   8.582
   418G11  H00U27868   3.762   9.054   8.643
   418G11  C0A827869   3.648   8.861   8.586
   418G11  H00V27870   3.700   8.806   8.663
   418G11  C0A727871   3.540   8.812   8.503
   418G11  C0A627872   3.485   8.906   8.403
   418G11  C0A527873   3.392   8.867   8.303
   418G11  C0A427874   3.334   8.740   8.300
   418G11  C0A327875   3.319   8.621   8.383
   418G11  C0A227876   3.411   8.586   8.479
   418G11  C0A127877   3.393   8.465   8.559
   418G11  C0A027878   3.300   8.353   8.562
   418G11  C09Z27879   3.314   8.265   8.671
   418G11  C09Y27880   3.231   8.152   8.686
   418G11  H00Y27881   3.235   8.084   8.770
   418G11  C09X27882   3.122   8.133   8.596
   418G11  C09W27883   3.035   8.025   8.617
   418G11  H00R27884   3.044   7.965   8.707
   418G11  C0AX27885   2.936   7.993   8.519
   418G11  H00S27886   2.874   7.906   8.538
   418G11  C0AW27887   2.920   8.061   8.403
   418G11  H00T27888   2.852   8.023   8.329
   418G11  C0AN27889   3.004   8.173   8.381
   418G11  C0AO27890   2.994   8.251   8.261
   418G11  C0AM27891   3.108   8.210   8.477
   418G11  C0B227892   3.417   8.275   8.776
   418G11  O00D27893   3.428   8.199   8.873
   418G11  C0B127894   3.511   8.381   8.760
   418G11  H00W27895   3.592   8.378   8.831
   418G11  C0AL27896   3.195   8.324   8.462
   418G11  C0AK27897   3.178   8.391   8.340
   418G11  C0B027898   3.495   8.474   8.654
   418G11  C0AZ27899   3.574   8.592   8.634
   418G11  H00X27900   3.651   8.624   8.703
   418G11  C0AJ27901   3.246   8.517   8.316
   418G11  C0AH27902   3.275   8.701   8.179
   418G11  C0AE27903   3.352   8.959   8.198
   418G11  C0AD27904   3.401   9.086   8.196
   418G11  C0AY27905   3.509   8.674   8.531
   418G11  C0AB27906   3.530   9.039   8.398
   418G11  C0AC27907   3.498   9.126   8.290
   418G11  C0BM27908   3.406   9.306   8.095
   418G11  C0CM27909   3.528   9.712   8.126
   418G11  C09M27910   3.487   9.812   8.027
   418G11  C09827911   3.510   9.953   8.057
   418G11  C08R27912   3.531  10.072   7.970
   418G11  C08Q27913   3.555  10.196   8.037
   418G11  C08P27914   3.624  10.321   8.004
   418G11  C08Y27915   3.697  10.384   8.106
   418G11  C09727916   3.727  10.318   8.221
   418G11  C09627917   3.856  10.339   8.263
   418G11  C09027918   3.894  10.462   8.195
   418G11  C09527919   4.022  10.513   8.190
   418G11  C09427920   4.058  10.632   8.118
   418G11  C08J27921   4.008  10.694   8.000
   418G11  C08I27922   4.113  10.723   7.912
   418G11  C08H27923   4.076  10.736   7.771
   418G11  C08G27924   3.945  10.669   7.776
   418G11  C08F27925   3.836  10.646   7.685
   418G11  C08E27926   3.808  10.735   7.578
   418G11  C05927927   3.860  10.859   7.559
   418G11  C05827928   3.813  10.948   7.460
   418G11  C05727929   3.865  11.074   7.425
   418G11  C05627930   3.986  11.109   7.498
   418G11  C05527931   4.024  11.047   7.607
   418G11  C05427932   4.156  11.079   7.643
   418G11  C05327933   4.208  11.162   7.536
   418G11  C05227934   4.347  11.197   7.505
   418G11  C05127935   4.453  11.149   7.593
   418G11  C05U27936   4.448  11.054   7.701
   418G11  C05T27937   4.345  10.970   7.751
   418G11  C06K27938   4.379  10.943   7.888
   418G11  H00J27939   4.308  10.902   7.958
   418G11  C06L27940   4.517  10.971   7.907
   418G11  H00I27941   4.572  10.955   7.999
   418G11  C05V27942   4.558  11.047   7.795
   418G11  C06J27943   4.673  11.110   7.776
   418G11  H00K27944   4.741  11.107   7.860
   418G11  C05X27945   4.695  11.175   7.654
   418G11  C06I27946   4.818  11.219   7.610
   418G11  H00L27947   4.901  11.207   7.679
   418G11  C04Z27948   4.838  11.299   7.497
   418G11  C06H27949   4.972  11.337   7.465
   418G11  H00H27950   5.059  11.299   7.517
   418G11  C04Y27951   4.995  11.413   7.346
   418G11  C06G27952   5.131  11.433   7.301
   418G11  O00927953   5.233  11.386   7.354
   418G11  O00827954   5.147  11.505   7.184
   418G11  C04P27955   5.045  11.540   7.104
   418G11  C04J27956   5.063  11.592   6.966
   418G11  C04Q27957   5.180  11.602   6.889
   418G11  H00E27958   5.268  11.571   6.944
   418G11  C04M27959   5.180  11.629   6.751
   418G11  C04R27960   5.296  11.626   6.673
   418G11  H00F27961   5.393  11.592   6.708
   418G11  C04S27962   5.291  11.662   6.544
   418G11  H00G27963   5.377  11.650   6.480
   418G11  O00727964   5.177  11.718   6.480
   418G11  C03V27965   5.063  11.718   6.560
   418G11  C03U27966   4.942  11.763   6.504
   418G11  O00627967   4.954  11.835   6.386
   418G11  C03F27968   4.849  11.830   6.305
   418G11  C03E27969   4.726  11.774   6.344
   418G11  C03D27970   4.707  11.732   6.477
   418G11  C03C27971   4.584  11.681   6.521
   418G11  C03B27972   4.489  11.663   6.418
   418G11  C03A27973   4.359  11.609   6.456
   418G11  C03927974   4.331  11.584   6.595
   418G11  C03827975   4.195  11.532   6.582
   418G11  C03727976   4.160  11.552   6.444
   418G11  C03627977   4.031  11.525   6.407
   418G11  C02R27978   3.991  11.512   6.272
   418G11  C03527979   3.879  11.431   6.288
   418G11  C03R27980   3.840  11.412   6.419
   418G11  C03S27981   3.753  11.309   6.464
   418G11  C04927982   3.760  11.273   6.593
   418G11  C04827983   3.863  11.332   6.669
   418G11  C03P27984   3.964  11.436   6.627
   418G11  C04727985   3.859  11.290   6.801
   418G11  C04627986   3.942  11.337   6.908
   418G11  C04527987   4.057  11.419   6.908
   418G11  C03T27988   4.129  11.481   6.810
   418G11  C04427989   4.251  11.526   6.870
   418G11  C04327990   4.239  11.510   7.013
   418G11  C04227991   4.369  11.501   7.078
   418G11  C04127992   4.453  11.546   6.968
   418G11  C04027993   4.595  11.565   6.984
   418G11  C03Z27994   4.686  11.610   6.881
   418G11  C04H27995   4.815  11.613   6.945
   418G11  C04G27996   4.800  11.552   7.071
   418G11  C03N27997   4.680  11.653   6.741
   418G11  C03Y27998   4.808  11.679   6.687
   418G11  C03X27999   4.935  11.662   6.758
   418G11  C04F28000   4.673  11.519   7.099
   418G11  C04E28001   4.645  11.446   7.219
   418G11  C04O28002   4.759  11.410   7.300
   418G11  C04D28003   4.522  11.400   7.264
   418G11  C04V28004   4.505  11.327   7.381
   418G11  C04W28005   4.610  11.280   7.457
   418G11  C04C28006   4.391  11.431   7.205
   418G11  C04L28007   4.299  11.349   7.285
   418G11  C04U28008   4.160  11.339   7.264
   418G11  C05Q28009   4.069  11.264   7.343
   418G11  C05P28010   3.955  11.237   7.271
   418G11  C04T28011   3.965  11.299   7.147
   418G11  C04B28012   4.084  11.366   7.145
   418G11  C03M28013   4.384  11.561   6.834
   418G11  C04A28014   4.126  11.430   7.030
   418G11  C05H28015   3.891  11.285   7.028
   418G11  C05G28016   3.783  11.202   6.998
   418G11  C05F28017   3.704  11.126   7.092
   418G11  C05E28018   3.605  11.022   7.053
   418G11  C05L28019   3.548  10.962   6.931
   418G11  C05K28020   3.568  11.024   6.803
   418G11  C05J28021   3.663  11.130   6.767
   418G11  C06628022   3.482  10.974   6.700
   418G11  C06528023   3.385  10.875   6.728
   418G11  C06428024   3.374  10.813   6.850
   418G11  C06N28025   3.304  10.817   6.627
   418G11  C06928026   3.325  10.859   6.497
   418G11  C06P28027   3.254  10.795   6.393
   418G11  C06R28028   3.282  10.819   6.259
   418G11  C06B28029   3.384  10.909   6.228
   418G11  C06S28030   3.419  10.932   6.096
   418G11  C02G28031   3.512  11.027   6.060
   418G11  C02F28032   3.552  11.042   5.929
   418G11  C02728033   3.506  10.957   5.835
   418G11  C02628034   3.551  10.972   5.706
   418G11  C00E28035   3.516  10.880   5.612
   418G11  C00D28036   3.565  10.893   5.482
   418G11  C00C28037   3.521  10.803   5.391
   418G11  C00B28038   3.439  10.694   5.411
   418G11  C01528039   3.377  10.696   5.535
   418G11  C07F28040   3.290  10.599   5.569
   418G11  C07E28041   3.242  10.588   5.697
   418G11  C06W28042   3.283  10.677   5.797
   418G11  C06V28043   3.374  10.771   5.766
   418G11  C06X28044   3.235  10.665   5.925
   418G11  C07B28045   3.153  10.560   5.956
   418G11  C07C28046   3.110  10.471   5.858
   418G11  C0FU28047   3.015  10.376   5.890
   418G11  C0F728048   2.972  10.289   5.791
   418G11  C0F628049   2.872  10.197   5.821
   418G11  C0F828050   2.823  10.114   5.720
   418G11  C0F928051   2.716  10.032   5.751
   418G11  C0FA28052   2.657   9.961   5.640
   418G11  C0FZ28053   2.709   9.974   5.514
   418G11  C0G028054   2.654   9.899   5.415
   418G11  C0GD28055   2.530   9.844   5.426
   418G11  C0FC28056   2.472   9.839   5.553
   418G11  C0GH28057   2.348   9.771   5.575
   418G11  C0EY28058   2.287   9.765   5.703
   418G11  C0EX28059   2.165   9.702   5.729
   418G11  C0EW28060   2.116   9.693   5.859
   418G11  C0FR28061   2.003   9.611   5.882
   418G11  H01D28062   1.966   9.593   5.981
   418G11  C0FS28063   1.928   9.560   5.776
   418G11  H01C28064   1.833   9.509   5.784
   418G11  C0GJ28065   1.967   9.587   5.647
   418G11  H01N28066   1.908   9.564   5.560
   418G11  C0EV28067   2.191   9.742   5.970
   418G11  C0FT28068   2.144   9.736   6.104
   418G11  H01E28069   2.053   9.691   6.140
   418G11  C0EU28070   2.309   9.808   5.942
   418G11  C0ET28071   2.392   9.856   6.042
   418G11  C0EI28072   2.509   9.918   6.036
   418G11  C0F128073   2.556   9.936   5.903
   418G11  C0F028074   2.485   9.882   5.794
   418G11  C0EH28075   2.576   9.980   6.144
   418G11  C0EG28076   2.538   9.960   6.283
   418G11  C0EJ28077   2.675  10.074   6.114
   418G11  C0F328078   2.724  10.091   5.982
   418G11  C0EK28079   2.732  10.151   6.216
   418G11  C0EL28080   2.696  10.129   6.357
   418G11  C0EM28081   2.761  10.221   6.447
   418G11  C0EN28082   2.823  10.333   6.396
   418G11  C07I28083   2.883  10.404   6.497
   418G11  C07428084   2.970  10.514   6.473
   418G11  C07328085   3.032  10.571   6.580
   418G11  C07228086   3.129  10.670   6.554
   418G11  C07528087   2.998  10.542   6.343
   418G11  C07628088   2.957  10.450   6.242
   418G11  C07828089   3.007  10.457   6.115
   418G11  C07G28090   3.092  10.640   6.315
   418G11  C07028091   3.140  10.643   6.184
   418G11  C07Z28092   2.856  10.351   6.620
   418G11  C07728093   2.872  10.345   6.265
   418G11  C0EO28094   2.828  10.249   6.178
   418G11  C0F428095   2.873  10.265   6.051
   418G11  C0EQ28096   2.344   9.844   6.173
   418G11  C0FQ28097   2.092   9.650   5.623
   418G11  C0GI28098   2.148   9.676   5.498
   418G11  H01L28099   2.084   9.651   5.414
   418G11  C0EZ28100   2.360   9.810   5.814
   418G11  C0GG28101   2.277   9.731   5.466
   418G11  C0GF28102   2.328   9.744   5.338
   418G11  H01M28103   2.267   9.716   5.254
   418G11  C0GE28104   2.457   9.786   5.316
   418G11  H01K28105   2.493   9.795   5.214
   418G11  O00J28106   2.719   9.881   5.297
   418G11  C0GA28107   2.823   9.966   5.266
   418G11  C0G928108   2.874   9.968   5.139
   418G11  H01H28109   2.838   9.905   5.059
   418G11  C0G828110   2.977  10.056   5.100
   418G11  C0G728111   3.041  10.065   4.976
   418G11  H01I28112   3.005   9.997   4.900
   418G11  O00I28113   3.137  10.151   4.938
   418G11  C0G628114   3.168  10.242   5.034
   418G11  H01J28115   3.222  10.329   5.002
   418G11  C02D28116   3.123  10.238   5.169
   418G11  C02C28117   3.175  10.322   5.269
   418G11  C01728118   3.283  10.406   5.244
   418G11  C01628119   3.320  10.506   5.341
   418G11  O00128120   3.362  10.401   5.133
   418G11  C01828121   3.484  10.478   5.119
   418G11  C00928122   3.492  10.596   5.197
   418G11  C00828123   3.578  10.708   5.175
   418G11  C00728124   3.690  10.733   5.089
   418G11  C00628125   3.747  10.628   5.005
   418G11  C00528126   3.873  10.642   4.940
   418G11  C00428127   3.961  10.756   4.929
   418G11  C00328128   3.971  10.878   5.005
   418G11  C00228129   4.082  10.968   4.983
   418G11  C00P28130   4.112  11.081   5.064
   418G11  C00O28131   4.220  11.157   5.045
   418G11  C00N28132   4.253  11.262   5.133
   418G11  C01028133   4.365  11.338   5.112
   418G11  C01128134   4.394  11.441   5.206
   418G11  C01Q28135   4.518  11.509   5.194
   418G11  C01U28136   4.606  11.481   5.089
   418G11  C01228137   4.563  11.392   4.990
   418G11  H00028138   4.625  11.386   4.902
   418G11  C01V28139   4.724  11.556   5.081
   418G11  H00728140   4.774  11.553   4.986
   418G11  O00528141   4.758  11.655   5.171
   418G11  C01W28142   4.678  11.672   5.280
   418G11  C03128143   4.717  11.771   5.376
   418G11  C03228144   4.628  11.803   5.480
   418G11  H00A28145   4.658  11.874   5.556
   418G11  C03328146   4.503  11.741   5.485
   418G11  H00B28147   4.438  11.782   5.561
   418G11  C01O28148   4.471  11.629   5.399
   418G11  C01N28149   4.361  11.553   5.421
   418G11  C01M28150   4.281  11.564   5.548
   418G11  C01L28151   4.293  11.600   5.696
   418G11  C01K28152   4.172  11.559   5.749
   418G11  C01Y28153   4.137  11.540   5.886
   418G11  C02I28154   4.227  11.589   5.981
   418G11  C02N28155   4.186  11.578   6.120
   418G11  C02M28156   4.282  11.615   6.217
   418G11  C02L28157   4.411  11.662   6.182
   418G11  C02K28158   4.445  11.672   6.047
   418G11  C02U28159   4.575  11.714   6.012
   418G11  C02V28160   4.663  11.768   6.105
   418G11  C03H28161   4.782  11.842   6.075
   418G11  H00C28162   4.801  11.851   5.969
   418G11  C02W28163   4.621  11.688   5.885
   418G11  C02X28164   4.529  11.637   5.796
   418G11  C02Y28165   4.610  11.570   5.701
   418G11  H00828166   4.580  11.511   5.616
   418G11  C02Z28167   4.753  11.602   5.730
   418G11  O00428168   4.852  11.583   5.668
   418G11  O00328169   4.751  11.669   5.852
   418G11  C02J28170   4.354  11.638   5.942
   418G11  C01Z28171   4.017  11.477   5.910
   418G11  C02028172   3.945  11.413   5.811
   418G11  C01I28173   3.980  11.426   5.679
   418G11  C01H28174   3.930  11.347   5.576
   418G11  C00K28175   3.992  11.346   5.452
   418G11  C01S28176   4.108  11.420   5.430
   418G11  C01428177   4.196  11.399   5.323
   418G11  C00J28178   3.963  11.250   5.356
   418G11  C00I28179   3.857  11.169   5.383
   418G11  C00H28180   3.788  11.173   5.509
   418G11  C00G28181   3.689  11.079   5.544
   418G11  C00S28182   3.830  11.067   5.294
   418G11  C00T28183   3.721  10.990   5.331
   418G11  C00U28184   3.680  10.897   5.236
   418G11  C00R28185   3.908  11.034   5.182
   418G11  C00L28186   4.052  11.219   5.251
   418G11  C02828187   3.831  11.255   5.609
   418G11  C02328188   3.782  11.248   5.741
   418G11  C02428189   3.683  11.162   5.771
   418G11  C02128190   3.837  11.328   5.843
   418G11  C02228191   3.799  11.316   5.969
   418G11  C02H28192   3.696  11.224   6.000
   418G11  C03028193   3.663  11.196   6.127
   418G11  C03428194   3.718  11.272   6.230
   418G11  C02P28195   3.868  11.385   6.063
   418G11  C02B28196   3.975  11.465   6.041
   418G11  C01J28197   4.087  11.510   5.652
   418G11  C01X28198   4.394  11.626   5.800
   418G11  C01T28199   4.152  11.511   5.532
   418G11  H00928200   4.814  11.818   5.364
   418G11  C01P28201   4.554  11.607   5.294
   418G11  C01R28202   4.322  11.463   5.324
   418G11  C00Z28203   4.449  11.314   5.003
   418G11  O00028204   4.417  11.215   4.911
   418G11  C00M28205   4.166  11.296   5.234
   418G11  C00Y28206   4.302  11.137   4.929
   418G11  C01328207   4.265  11.039   4.839
   418G11  H00128208   4.315  11.048   4.744
   418G11  C00Q28209   4.026  11.113   5.166
   418G11  C00128210   4.161  10.950   4.865
   418G11  C00028211   4.132  10.841   4.782
   418G11  H00628212   4.193  10.837   4.694
   418G11  C00W28213   3.880  10.924   5.100
   418G11  C01G28214   4.048  10.744   4.818
   418G11  H00528215   4.047  10.663   4.746
   418G11  C01C28216   3.895  10.516   4.876
   418G11  H00228217   3.978  10.482   4.815
   418G11  C01B28218   3.781  10.435   4.893
   418G11  C01D28219   3.755  10.299   4.856
   418G11  H00328220   3.828  10.247   4.795
   418G11  C01E28221   3.636  10.248   4.891
   418G11  H00428222   3.619  10.144   4.864
   418G11  O00228223   3.539  10.305   4.974
   418G11  C01A28224   3.688  10.500   4.976
   418G11  C00V28225   3.751  10.857   5.122
   418G11  C01928226   3.573  10.429   5.026
   418G11  C02E28227   3.125  10.317   5.400
   418G11  C0FX28228   3.030  10.218   5.430
   418G11  C0FW28229   2.984  10.208   5.565
   418G11  C0GB28230   2.978  10.131   5.330
   418G11  C0G328231   3.167  10.406   5.496
   418G11  C07H28232   3.122  10.394   5.630
   418G11  C0GC28233   3.021  10.143   5.198
   418G11  C0G228234   2.880  10.047   5.365
   418G11  C0G128235   2.826  10.045   5.492
   418G11  C0FB28236   2.538   9.889   5.665
   418G11  C0F228237   2.664  10.020   5.880
   418G11  C0FY28238   2.881  10.121   5.594
   418G11  C0F528239   2.820  10.186   5.953
   418G11  C0FV28240   3.028  10.293   5.660
   418G11  C07928241   2.963  10.368   6.016
   418G11  C07A28242   3.103  10.552   6.087
   418G11  C06Y28243   3.274  10.756   6.026
   418G11  C07D28244   3.156  10.485   5.727
   418G11  C01F28245   3.256  10.508   5.466
   418G11  C00A28246   3.413  10.604   5.312
   418G11  C00X28247   3.580  10.806   5.265
   418G11  C00F28248   3.653  10.991   5.449
   418G11  C02928249   3.421  10.785   5.636
   418G11  C02528250   3.634  11.074   5.673
   418G11  C06U28251   3.412  10.859   5.864
   418G11  C02A28252   3.645  11.143   5.902
   418G11  C05Y28253   3.569  11.104   6.161
   418G11  C05Z28254   3.539  11.074   6.298
   418G11  C06028255   3.597  11.150   6.400
   418G11  C06228256   3.580  11.118   6.537
   418G11  C06T28257   3.370  10.848   5.997
   418G11  C06A28258   3.444  10.978   6.332
   418G11  C06Z28259   3.229  10.742   6.156
   418G11  C06Q28260   3.159  10.701   6.422
   418G11  C06828261   3.417  10.957   6.466
   418G11  C06728262   3.492  11.016   6.570
   418G11  C06328263   3.455  10.854   6.953
   418G11  C06C28264   3.457  10.782   7.067
   418G11  C06D28265   3.537  10.821   7.177
   418G11  C06E28266   3.558  10.751   7.295
   418G11  C07Q28267   3.492  10.635   7.307
   418G11  C07P28268   3.400  10.594   7.206
   418G11  C07T28269   3.331  10.481   7.227
   418G11  C07U28270   3.237  10.445   7.131
   418G11  C07V28271   3.163  10.326   7.150
   418G11  C08428272   3.190  10.250   7.263
   418G11  C08C28273   3.293  10.284   7.354
   418G11  C08B28274   3.316  10.200   7.459
   418G11  C08A28275   3.402  10.248   7.552
   418G11  C08928276   3.478  10.361   7.545
   418G11  C08828277   3.572  10.390   7.644
   418G11  C08728278   3.648  10.500   7.625
   418G11  C08628279   3.619  10.586   7.515
   418G11  C08X28280   3.590  10.312   7.758
   418G11  C08T28281   3.527  10.177   7.756
   418G11  C08D28282   3.458  10.437   7.431
   418G11  C08U28283   3.436  10.160   7.654
   418G11  C08V28284   3.369  10.041   7.672
   418G11  C0CY28285   3.279  10.000   7.578
   418G11  C0CX28286   3.228   9.873   7.596
   418G11  C0CW28287   3.128   9.837   7.505
   418G11  C0CV28288   3.085   9.927   7.409
   418G11  C0D428289   3.147  10.049   7.391
   418G11  C0CU28290   2.983   9.884   7.320
   418G11  C0CT28291   2.925   9.760   7.330
   418G11  C0CS28292   2.972   9.671   7.426
   418G11  C0D628293   2.954   9.978   7.222
   418G11  C0EC28294   3.017  10.098   7.201
   418G11  C07X28295   2.988  10.174   7.090
   418G11  C0DL28296   2.849   9.945   7.142
   418G11  C0DK28297   2.810  10.027   7.044
   418G11  C0DN28298   2.718   9.962   6.970
   418G11  C0D828299   2.775   9.821   7.149
   418G11  C08W28300   3.425   9.969   7.777
   418G11  C0CQ28301   3.365   9.840   7.802
   418G11  C09328302   3.250  10.081   7.477
   418G11  C09228303   3.117  10.134   7.287
   418G11  C08528304   3.361  10.400   7.334
   418G11  C07S28305   3.522  10.556   7.422
   418G11  C06F28306   3.655  10.789   7.391
   418G11  C07O28307   3.384  10.670   7.091
   418G11  C07N28308   3.295  10.631   6.993
   418G11  C05D28309   3.591  10.949   7.171
   418G11  C05C28310   3.674  10.989   7.269
   418G11  C05N28311   3.747  11.099   7.226
   418G11  C05M28312   3.761  11.195   6.853
   418G11  C05I28313   3.664  11.178   6.636
   418G11  C06128314   3.685  11.243   6.363
   418G11  C02Q28315   3.814  11.365   6.188
   418G11  C02O28316   4.054  11.517   6.145
   418G11  C03Q28317   3.942  11.464   6.492
   418G11  C03O28318   4.096  11.478   6.675
   418G11  C03L28319   4.430  11.591   6.698
   418G11  C02S28320   4.259  11.592   6.357
   418G11  C02T28321   4.511  11.689   6.275
   418G11  C03K28322   4.564  11.642   6.657
   418G11  C03I28323   4.634  11.737   6.241
   418G11  C03G28324   4.880  11.861   6.173
   418G11  H00D28325   4.981  11.892   6.147
   418G11  C03J28326   4.818  11.732   6.563
   418G11  C03W28327   5.059  11.665   6.690
   418G11  C04I28328   4.943  11.630   6.894
   418G11  C04K28329   4.915  11.521   7.148
   418G11  C04N28330   4.890  11.453   7.265
   418G11  C04X28331   4.733  11.334   7.419
   418G11  C05028332   4.586  11.201   7.572
   418G11  C05W28333   4.374  11.281   7.394
   418G11  C05S28334   4.210  10.958   7.691
   418G11  C05R28335   4.091  11.192   7.458
   418G11  C05O28336   3.853  11.142   7.304
   418G11  C05B28337   3.709  10.910   7.380
   418G11  C05A28338   3.981  10.914   7.618
   418G11  C07R28339   3.694  10.703   7.499
   418G11  C08N28340   3.746  10.544   7.722
   418G11  C08M28341   3.752  10.475   7.850
   418G11  C08L28342   3.830  10.524   7.954
   418G11  C09128343   4.097  10.858   7.688
   418G11  C09K28344   4.236  10.670   7.980
   418G11  H00M28345   4.331  10.656   7.931
   418G11  C08K28346   3.923  10.625   7.911
   418G11  C09J28347   4.200  10.637   8.117
   418G11  C09I28348   4.251  10.545   8.216
   418G11  C09L28349   4.373  10.539   8.285
   418G11  H00N28350   4.456  10.606   8.265
   418G11  C09Q28351   4.378  10.436   8.371
   418G11  H00O28352   4.472  10.414   8.418
   418G11  O00B28353   4.282  10.348   8.400
   418G11  C09G28354   4.158  10.357   8.342
   418G11  C09F28355   4.067  10.254   8.382
   418G11  O00A28356   4.126  10.170   8.479
   418G11  C09P28357   4.051  10.065   8.514
   418G11  H00P28358   4.077  10.025   8.611
   418G11  C09O28359   3.934  10.016   8.446
   418G11  C09D28360   3.871  10.112   8.365
   418G11  C09C28361   3.744  10.094   8.291
   418G11  C09N28362   3.658   9.978   8.255
   418G11  C09T28363   3.697   9.846   8.281
   418G11  C09S28364   3.771   9.817   8.398
   418G11  C0CP28365   3.701   9.706   8.452
   418G11  C0CN28366   3.596   9.666   8.375
   418G11  C0CO28367   3.519   9.562   8.417
   418G11  H01428368   3.431   9.522   8.369
   418G11  C0CZ28369   3.556   9.499   8.541
   418G11  H01528370   3.497   9.421   8.585
   418G11  C0D028371   3.677   9.533   8.608
   418G11  C0G528372   3.738   9.454   8.710
   418G11  H01F28373   3.695   9.361   8.742
   418G11  C0G428374   3.851   9.501   8.764
   418G11  H01G28375   3.891   9.438   8.842
   418G11  O00H28376   3.914   9.624   8.742
   418G11  C0D228377   3.869   9.691   8.630
   418G11  C09V28378   3.933   9.812   8.582
   418G11  H00Q28379   4.010   9.847   8.650
   418G11  C0D128380   3.756   9.645   8.564
   418G11  C09R28381   3.879   9.882   8.469
   418G11  C09H28382   4.141  10.460   8.247
   418G11  C09E28383   3.933  10.242   8.343
   418G11  C09B28384   3.667  10.198   8.242
   418G11  C08Z28385   3.807  10.467   8.081
   418G11  C08O28386   3.661  10.368   7.872
   418G11  C09A28387   3.553  10.156   8.171
   418G11  C08S28388   3.514  10.065   7.836
   418G11  C09928389   3.543  10.015   8.178
   418G11  C09U28390   3.603   9.738   8.251
   418G11  C0BO28391   3.359   9.403   8.002
   418G11  C0CL28392   3.405   9.760   7.910
   418G11  C0D328393   3.272   9.792   7.702
   418G11  C0D528394   3.069   9.713   7.513
   418G11  C0BR28395   3.211   9.453   7.812
   418G11  C0BQ28396   3.262   9.363   7.909
   418G11  C0BL28397   3.352   9.178   8.105
   418G11  C0AF28398   3.266   8.919   8.091
   418G11  C0BH28399   3.076   9.058   7.814
   418G11  C0BG28400   2.977   9.017   7.730
   418G11  C0BD28401   2.986   8.795   7.812
   418G11  C0AG28402   3.232   8.790   8.075
   418G11  C0AI28403   3.226   8.573   8.188
   418G11  C0AV28404   3.089   8.353   8.238
   418G11  C0BB28405   2.958   8.443   7.905
   418G11  O00C28406   2.888   8.219   8.178
   418G11  C0BC28407   2.853   8.391   7.843
   418G11  C0B928408   2.941   8.662   7.816
   418G11  O00E28409   2.635   8.701   7.630
   418G11  C0CA28410   2.571   8.779   7.528
   418G11  O00F28411   2.471   8.737   7.470
   418G11  C0BF28412   2.923   8.888   7.740
   418G11  C0C528413   2.635   8.907   7.516
   418G11  C0C428414   2.567   8.998   7.430
   418G11  H01128415   2.474   8.971   7.382
   418G11  C0C828416   2.921   9.106   7.641
   418G11  C0C228417   2.638   9.122   7.415
   418G11  C0C328418   2.596   9.216   7.316
   418G11  C0DY28419   2.500   9.197   7.213
   418G11  H01628420   2.439   9.111   7.191
   418G11  C0DX28421   2.509   9.315   7.134
   418G11  C0DW28422   2.471   9.288   6.991
   418G11  C0BY28423   2.922   9.322   7.539
   418G11  C0DB28424   2.664   9.338   7.292
   418G11  C0CC28425   2.919   9.545   7.436
   418G11  C0D728426   2.826   9.719   7.235
   418G11  C0DZ28427   2.610   9.410   7.186
   418G11  C0DM28428   2.686   9.829   7.033
   418G11  C0DQ28429   2.530   9.528   6.915
   418G11  C0DV28430   2.479   9.396   6.901
   418G11  C0E028431   2.423   9.165   6.919
   418G11  C0FO28432   2.183   9.206   6.671
   418G11  C0E328433   2.303   9.094   6.954
   418G11  H01728434   2.281   9.067   7.056
   418G11  C0GV28435   2.064   9.140   6.707
   418G11  C0ES28436   2.172   9.332   6.613
   418G11  C0GQ28437   1.808   9.352   6.576
   418G11  C0FJ28438   1.872   9.692   6.436
   418G11  C0ED28439   2.138   9.602   6.492
   418G11  C0ER28440   2.228   9.782   6.203
   418G11  C0EP28441   2.421   9.875   6.289
   418G11  C0E628442   2.368   9.649   6.583
   418G11  C0DE28443   2.544   9.855   6.733
   418G11  C0EA28444   2.603  10.022   6.390
   418G11  C0DF28445   2.580   9.988   6.765
   418G11  C08028446   2.770  10.239   6.584
   418G11  C0DO28447   2.682  10.030   6.856
   418G11  C0DJ28448   2.881  10.148   7.011
   418G11  C07K28449   2.936  10.397   6.732
   418G11  C07W28450   3.062  10.288   7.061
   418G11  C08328451   3.215  10.519   7.015
   418G11  C07J28452   3.017  10.513   6.709
   418G11  C06O28453   3.201  10.723   6.652
   418G11  C06M28454   3.286  10.704   6.875
   428G11  C07128455   1.056   1.408   5.752
   428G11  C07L28456   0.926   1.380   5.800
   428G11  C07M28457   0.837   1.299   5.734
   428G11  C07Y28458   0.707   1.282   5.779
   428G11  C08128459   0.659   1.344   5.896
   428G11  C08228460   0.518   1.329   5.928
   428G11  C0DI28461   0.442   1.406   6.032
   428G11  C0DH28462   0.471   1.491   6.143
   428G11  C0DG28463   0.358   1.562   6.192
   428G11  C0E928464   0.323   1.600   6.323
   428G11  C0E828465   0.181   1.549   6.341
   428G11  C0E728466   0.106   1.539   6.466
   428G11  C0EB28467   0.146   1.606   6.585
   428G11  C0EF28468   0.086   1.595   6.719
   428G11  C0EE28469   0.046   1.475   6.784
   428G11  C0FD28470   0.096   1.430   6.912
   428G11  C0FE28471   0.202   1.485   6.987
   428G11  H01B28472   0.245   1.581   6.964
   428G11  C0FF28473   0.255   1.430   7.102
   428G11  H01A28474   0.341   1.462   7.158
   428G11  C0FG28475   0.202   1.306   7.149
   428G11  H01828476   0.239   1.263   7.241
   428G11  C0FH28477   0.099   1.238   7.076
   428G11  C0FI28478   0.046   1.110   7.114
   428G11  H01928479   0.081   1.055   7.200
   428G11  O00K28480  -0.061   1.049   7.054
   428G11  C0FL28481  -0.105   1.113   6.942
   428G11  C0FK28482  -0.057   1.243   6.894
   428G11  C0FM28483  -0.110   1.294   6.774
   428G11  C0FN28484  -0.230   1.236   6.722
   428G11  C0FP28485  -0.269   1.109   6.770
   428G11  C0GO28486  -0.374   1.034   6.713
   428G11  C0GN28487  -0.403   0.900   6.738
   428G11  C0GR28488  -0.340   0.854   6.858
   428G11  C0GS28489  -0.360   0.718   6.895
   428G11  H01Q28490  -0.297   0.678   6.972
   428G11  C0GT28491  -0.440   0.637   6.814
   428G11  H01O28492  -0.452   0.535   6.846
   428G11  C0GU28493  -0.512   0.696   6.707
   428G11  H01P28494  -0.579   0.636   6.648
   428G11  O00L28495  -0.240   0.922   6.923
   428G11  C0GM28496  -0.501   0.831   6.663
   428G11  C0GL28497  -0.569   0.898   6.551
   428G11  H01R28498  -0.653   0.859   6.496
   428G11  C0GK28499  -0.540   1.036   6.535
   428G11  C0GP28500  -0.581   1.139   6.440
   428G11  C0E228501  -0.526   1.268   6.481
   428G11  C0E128502  -0.489   1.342   6.362
   428G11  C0DU28503  -0.361   1.397   6.335
   428G11  C0DT28504  -0.253   1.433   6.419
   428G11  C0E428505  -0.230   1.388   6.547
   428G11  C0E528506  -0.101   1.424   6.587
   428G11  C0DS28507  -0.125   1.460   6.374
   428G11  C0DR28508  -0.099   1.433   6.234
   428G11  C0DD28509   0.026   1.413   6.174
   428G11  C0DC28510  -0.002   1.348   6.042
   428G11  C0DP28511  -0.142   1.331   6.018
   428G11  C0DA28512  -0.210   1.282   5.895
   428G11  C0D928513  -0.153   1.234   5.764
   428G11  C0CR28514  -0.237   1.220   5.648
   428G11  C0C028515  -0.374   1.248   5.657
   428G11  C0BZ28516  -0.464   1.252   5.554
   428G11  C0C128517  -0.589   1.308   5.570
   428G11  C0C728518  -0.673   1.319   5.459
   428G11  C0C628519  -0.796   1.379   5.469
   428G11  C0C928520  -0.880   1.381   5.358
   428G11  C0B828521  -0.993   1.463   5.365
   428G11  C0B728522  -1.084   1.469   5.253
   428G11  C0B628523  -1.190   1.564   5.222
   428G11  C0B528524  -1.180   1.708   5.251
   428G11  H00Z28525  -1.100   1.741   5.316
   428G11  C0B428526  -1.267   1.775   5.148
   428G11  H01028527  -1.275   1.882   5.139
   428G11  C0B328528  -1.324   1.668   5.060
   428G11  C0AP28529  -1.343   1.642   4.918
   428G11  C0AQ28530  -1.309   1.503   4.910
   428G11  C0AR28531  -1.265   1.454   4.782
   428G11  C0AS28532  -1.178   1.357   4.795
   428G11  C0AT28533  -1.108   1.328   4.910
   428G11  C0BA28534  -1.142   1.376   5.034
   428G11  C0AU28535  -0.985   1.258   4.909
   428G11  C0BE28536  -0.894   1.259   5.010
   428G11  C0BI28537  -0.769   1.198   4.999
   428G11  C0BJ28538  -0.733   1.141   4.873
   428G11  C0BK28539  -0.603   1.088   4.856
   428G11  C0BW28540  -0.516   1.084   4.967
   428G11  C0BV28541  -0.555   1.145   5.090
   428G11  C0BU28542  -0.465   1.157   5.195
   428G11  C0BX28543  -0.504   1.208   5.319
   428G11  C0BT28544  -0.333   1.110   5.177
   428G11  C0CD28545  -0.243   1.114   5.282
   428G11  C0CB28546  -0.283   1.168   5.408
   428G11  C0CE28547  -0.111   1.075   5.266
   428G11  C0CK28548  -0.069   1.028   5.141
   428G11  C0BS28549  -0.159   1.013   5.038
   428G11  C0CJ28550  -0.121   0.960   4.910
   428G11  C0BP28551  -0.219   0.934   4.816
   428G11  C0CI28552  -0.183   0.882   4.692
   428G11  C0CH28553  -0.286   0.847   4.603
   428G11  H01228554  -0.253   0.794   4.515
   428G11  C0BN28555  -0.408   0.915   4.608
   428G11  C0CG28556  -0.488   0.936   4.496
   428G11  C0CF28557  -0.452   0.883   4.362
   428G11  H01328558  -0.367   0.817   4.354
   428G11  O00G28559  -0.536   0.893   4.255
   428G11  C0AA28560  -0.650   0.964   4.266
   428G11  C0A928561  -0.726   0.981   4.152
   428G11  H00U28562  -0.701   0.929   4.060
   428G11  C0A828563  -0.831   1.068   4.145
   428G11  H00V28564  -0.879   1.088   4.050
   428G11  C0A728565  -0.869   1.143   4.260
   428G11  C0A628566  -0.802   1.105   4.392
   428G11  C0A528567  -0.848   1.140   4.519
   428G11  C0A428568  -0.971   1.218   4.537
   428G11  C0A328569  -1.062   1.293   4.454
   428G11  C0A228570  -1.034   1.333   4.321
   428G11  C0A128571  -1.130   1.417   4.253
   428G11  C0A028572  -1.238   1.509   4.289
   428G11  C09Z28573  -1.311   1.563   4.178
   428G11  C09Y28574  -1.424   1.645   4.195
   428G11  H00Y28575  -1.483   1.670   4.109
   428G11  C09X28576  -1.444   1.695   4.324
   428G11  C09W28577  -1.540   1.802   4.334
   428G11  H00R28578  -1.591   1.827   4.241
   428G11  C0AX28579  -1.568   1.868   4.458
   428G11  H00S28580  -1.645   1.944   4.454
   428G11  C0AW28581  -1.498   1.823   4.569
   428G11  H00T28582  -1.521   1.862   4.667
   428G11  C0AN28583  -1.410   1.710   4.562
   428G11  C0AO28584  -1.353   1.648   4.678
   428G11  C0AM28585  -1.378   1.651   4.436
   428G11  C0B228586  -1.281   1.530   4.041
   428G11  O00D28587  -1.347   1.581   3.947
   428G11  C0B128588  -1.177   1.443   4.011
   428G11  H00W28589  -1.153   1.421   3.908
   428G11  C0AL28590  -1.279   1.546   4.423
   428G11  C0AK28591  -1.243   1.485   4.539
   428G11  C0B028592  -1.105   1.385   4.117
   428G11  C0AZ28593  -1.004   1.283   4.105
   428G11  H00X28594  -0.978   1.250   4.005
   428G11  C0AJ28595  -1.151   1.366   4.539
   428G11  C0AH28596  -1.008   1.245   4.668
   428G11  C0AE28597  -0.778   1.104   4.638
   428G11  C0AD28598  -0.650   1.039   4.623
   428G11  C0AY28599  -0.963   1.245   4.236
   428G11  C0AB28600  -0.691   1.024   4.386
   428G11  C0AC28601  -0.610   0.999   4.500
   428G11  C0BM28602  -0.444   0.974   4.727
   428G11  C0CM28603  -0.041   0.869   4.653
   428G11  C09M28604   0.062   0.878   4.751
   428G11  C09828605   0.179   0.805   4.728
   428G11  C08R28606   0.311   0.810   4.787
   428G11  C08Q28607   0.408   0.714   4.738
   428G11  C08P28608   0.550   0.722   4.712
   428G11  C08Y28609   0.608   0.661   4.594
   428G11  C09728610   0.516   0.624   4.497
   428G11  C09628611   0.559   0.666   4.374
   428G11  C09028612   0.698   0.700   4.390
   428G11  C09528613   0.781   0.766   4.298
   428G11  C09428614   0.918   0.799   4.309
   428G11  C08J28615   0.997   0.804   4.423
   428G11  C08I28616   1.094   0.901   4.399
   428G11  C08H28617   1.130   0.962   4.525
   428G11  C08G28618   1.030   0.920   4.623
   428G11  C08F28619   1.007   0.927   4.764
   428G11  C08E28620   1.109   0.969   4.850
   428G11  C05928621   1.245   0.975   4.825
   428G11  C05828622   1.341   1.010   4.922
   428G11  C05728623   1.477   1.042   4.896
   428G11  C05628624   1.522   1.007   4.769
   428G11  C05528625   1.445   0.941   4.676
   428G11  C05428626   1.503   0.956   4.545
   428G11  C05328627   1.614   1.045   4.555
   428G11  C05228628   1.691   1.114   4.456
   428G11  C05128629   1.658   1.109   4.314
   428G11  C05U28630   1.535   1.051   4.262
   428G11  C05T28631   1.421   0.993   4.322
   428G11  C06K28632   1.364   0.917   4.220
   428G11  H00J28633   1.286   0.846   4.242
   428G11  C06L28634   1.415   0.952   4.096
   428G11  H00I28635   1.376   0.916   4.002
   428G11  C05V28636   1.527   1.035   4.122
   428G11  C06J28637   1.600   1.096   4.034
   428G11  H00K28638   1.568   1.087   3.931
   428G11  C05X28639   1.705   1.174   4.075
   428G11  C06I28640   1.788   1.250   3.991
   428G11  H00L28641   1.777   1.235   3.884
   428G11  C04Z28642   1.877   1.350   4.026
   428G11  C06H28643   1.948   1.431   3.936
   428G11  H00H28644   1.926   1.414   3.832
   428G11  C04Y28645   2.055   1.526   3.984
   428G11  C06G28646   2.132   1.603   3.892
   428G11  O00928647   2.118   1.588   3.772
   428G11  O00828648   2.224   1.689   3.946
   428G11  C04P28649   2.242   1.704   4.077
   428G11  C04J28650   2.326   1.801   4.135
   428G11  C04Q28651   2.422   1.883   4.072
   428G11  H00E28652   2.444   1.861   3.969
   428G11  C04M28653   2.503   1.981   4.136
   428G11  C04R28654   2.619   2.048   4.081
   428G11  H00F28655   2.657   2.020   3.984
   428G11  C04S28656   2.692   2.137   4.152
   428G11  H00G28657   2.788   2.172   4.119
   428G11  O00728658   2.643   2.185   4.269
   428G11  C03V28659   2.550   2.110   4.334
   428G11  C03U28660   2.522   2.135   4.470
   428G11  O00628661   2.587   2.242   4.526
   428G11  C03F28662   2.549   2.285   4.649
   428G11  C03E28663   2.454   2.210   4.720
   428G11  C03D28664   2.393   2.094   4.667
   428G11  C03C28665   2.311   2.017   4.748
   428G11  C03B28666   2.303   2.058   4.885
   428G11  C03A28667   2.228   1.980   4.971
   428G11  C03928668   2.158   1.865   4.923
   428G11  C03828669   2.084   1.825   5.039
   428G11  C03728670   2.126   1.917   5.140
   428G11  C03628671   2.090   1.893   5.266
   428G11  C02R28672   2.113   1.965   5.380
   428G11  C03528673   2.049   1.897   5.485
   428G11  C03R28674   1.980   1.790   5.430
   428G11  C03S28675   1.867   1.732   5.489
   428G11  C04928676   1.795   1.647   5.407
   428G11  C04828677   1.844   1.631   5.275
   428G11  C03P28678   1.947   1.706   5.210
   428G11  C04728679   1.774   1.519   5.213
   428G11  C04628680   1.809   1.460   5.094
   428G11  C04528681   1.907   1.494   4.996
   428G11  C03T28682   1.986   1.608   4.987
   428G11  C04428683   2.051   1.598   4.862
   428G11  C04328684   2.020   1.472   4.803
   428G11  C04228685   2.028   1.473   4.664
   428G11  C04128686   2.085   1.605   4.641
   428G11  C04028687   2.113   1.657   4.514
   428G11  C03Z28688   2.210   1.762   4.489
   428G11  C04H28689   2.237   1.751   4.354
   428G11  C04G28690   2.169   1.641   4.303
   428G11  C03N28691   2.273   1.874   4.556
   428G11  C03Y28692   2.362   1.951   4.479
   428G11  C03X28693   2.390   1.929   4.344
   428G11  C04F28694   2.089   1.578   4.397
   428G11  C04E28695   2.013   1.470   4.351
   428G11  C04O28696   1.991   1.458   4.211
   428G11  C04D28697   1.953   1.374   4.433
   428G11  C04V28698   1.868   1.279   4.383
   428G11  C04W28699   1.833   1.275   4.249
   428G11  C04C28700   1.960   1.369   4.575
   428G11  C04L28701   1.868   1.253   4.608
   428G11  C04U28702   1.820   1.222   4.743
   428G11  C05Q28703   1.712   1.138   4.774
   428G11  C05P28704   1.677   1.167   4.904
   428G11  C04T28705   1.749   1.279   4.958
   428G11  C04B28706   1.839   1.309   4.859
   428G11  C03M28707   2.108   1.684   4.762
   428G11  C04A28708   1.920   1.416   4.879
   428G11  C05H28709   1.730   1.352   5.075
   428G11  C05G28710   1.637   1.344   5.186
   428G11  C05F28711   1.552   1.232   5.213
   428G11  C05E28712   1.444   1.236   5.307
   428G11  C05L28713   1.402   1.327   5.416
   428G11  C05K28714   1.481   1.438   5.466
   428G11  C05J28715   1.600   1.495   5.403
   428G11  C06628716   1.428   1.500   5.583
   428G11  C06528717   1.308   1.470   5.639
   428G11  C06428718   1.226   1.372   5.585
   428G11  C06N28719   1.260   1.531   5.757
   428G11  C06928720   1.337   1.633   5.819
   428G11  C06P28721   1.287   1.710   5.926
   428G11  C06R28722   1.353   1.818   5.976
   428G11  C06B28723   1.473   1.852   5.920
   428G11  C06S28724   1.546   1.956   5.977
   428G11  C02G28725   1.670   1.999   5.924
   428G11  C02F28726   1.738   2.107   5.974
   428G11  C02728727   1.683   2.181   6.080
   428G11  C02628728   1.753   2.288   6.127
   428G11  C00E28729   1.701   2.358   6.234
   428G11  C00D28730   1.754   2.479   6.269
   428G11  C00C28731   1.685   2.563   6.348
   428G11  C00B28732   1.566   2.536   6.402
   428G11  C01528733   1.508   2.413   6.374
   428G11  C07F28734   1.384   2.388   6.417
   428G11  C07E28735   1.325   2.270   6.377
   428G11  C06W28736   1.381   2.190   6.281
   428G11  C06V28737   1.508   2.216   6.238
   428G11  C06X28738   1.316   2.078   6.231
   428G11  C07B28739   1.197   2.040   6.288
   428G11  C07C28740   1.138   2.116   6.389
   428G11  C0FU28741   1.014   2.082   6.440
   428G11  C0F728742   0.957   2.160   6.538
   428G11  C0F628743   0.831   2.129   6.588
   428G11  C0F828744   0.775   2.214   6.689
   428G11  C0F928745   0.651   2.173   6.737
   428G11  C0FA28746   0.598   2.244   6.846
   428G11  C0FZ28747   0.663   2.363   6.879
   428G11  C0G028748   0.609   2.439   6.981
   428G11  C0GD28749   0.500   2.400   7.060
   428G11  C0FC28750   0.441   2.278   7.023
   428G11  C0GH28751   0.336   2.223   7.101
   428G11  C0EY28752   0.273   2.104   7.061
   428G11  C0EX28753   0.166   2.048   7.133
   428G11  C0EW28754   0.098   1.938   7.087
   428G11  C0FR28755   0.000   1.881   7.164
   428G11  H01D28756  -0.052   1.789   7.143
   428G11  C0FS28757  -0.026   1.925   7.300
   428G11  H01C28758  -0.092   1.870   7.366
   428G11  C0GJ28759   0.040   2.043   7.335
   428G11  H01N28760   0.012   2.089   7.429
   428G11  C0EV28761   0.132   1.887   6.962
   428G11  C0FT28762   0.075   1.765   6.919
   428G11  H01E28763   0.007   1.705   6.978
   428G11  C0EU28764   0.233   1.944   6.889
   428G11  C0ET28765   0.275   1.889   6.766
   428G11  C0EI28766   0.387   1.922   6.691
   428G11  C0F128767   0.460   2.023   6.750
   428G11  C0F028768   0.418   2.090   6.867
   428G11  C0EH28769   0.435   1.844   6.581
   428G11  C0EG28770   0.359   1.745   6.518
   428G11  C0EJ28771   0.562   1.875   6.529
   428G11  C0F328772   0.633   1.984   6.585
   428G11  C0EK28773   0.618   1.796   6.427
   428G11  C0EL28774   0.546   1.693   6.366
   428G11  C0EM28775   0.633   1.615   6.277
   428G11  C0EN28776   0.760   1.649   6.249
   428G11  C07I28777   0.810   1.576   6.145
   428G11  C07428778   0.930   1.603   6.089
   428G11  C07328779   0.968   1.534   5.977
   428G11  C07228780   1.090   1.572   5.917
   428G11  C07528781   0.993   1.714   6.139
   428G11  C07628782   0.942   1.790   6.244
   428G11  C07828783   1.006   1.894   6.293
   428G11  C07G28784   1.109   1.753   6.080
   428G11  C07028785   1.175   1.859   6.130
   428G11  C07Z28786   0.714   1.495   6.085
   428G11  C07728787   0.815   1.766   6.292
   428G11  C0EO28788   0.750   1.828   6.394
   428G11  C0F428789   0.823   1.939   6.443
   428G11  C0EQ28790   0.201   1.783   6.710
   428G11  C0FQ28791   0.133   2.110   7.254
   428G11  C0GI28792   0.194   2.228   7.284
   428G11  H01L28793   0.150   2.272   7.373
   428G11  C0EZ28794   0.307   2.051   6.938
   428G11  C0GG28795   0.290   2.293   7.208
   428G11  C0GF28796   0.348   2.414   7.246
   428G11  H01M28797   0.313   2.464   7.335
   428G11  C0GE28798   0.449   2.469   7.171
   428G11  H01K28799   0.494   2.563   7.200
   428G11  O00J28800   0.667   2.562   7.015
   428G11  C0GA28801   0.765   2.613   6.941
   428G11  C0G928802   0.814   2.736   6.968
   428G11  H01H28803   0.758   2.796   7.039
   428G11  C0G828804   0.916   2.797   6.889
   428G11  C0G728805   0.963   2.933   6.898
   428G11  H01I28806   0.940   3.003   6.977
   428G11  O00I28807   1.048   2.982   6.806
   428G11  C0G628808   1.125   2.896   6.735
   428G11  H01J28809   1.192   2.944   6.665
   428G11  C02D28810   1.097   2.755   6.725
   428G11  C02C28811   1.170   2.667   6.648
   428G11  C01728812   1.300   2.701   6.594
   428G11  C01628813   1.371   2.605   6.518
   428G11  O00128814   1.357   2.826   6.616
   428G11  C01828815   1.472   2.861   6.561
   428G11  C00928816   1.545   2.772   6.488
   428G11  C00828817   1.674   2.793   6.426
   428G11  C00728818   1.760   2.904   6.411
   428G11  C00628819   1.727   3.037   6.453
   428G11  C00528820   1.805   3.152   6.429
   428G11  C00428821   1.929   3.170   6.358
   428G11  C00328822   2.008   3.075   6.274
   428G11  C00228823   2.122   3.129   6.202
   428G11  C00P28824   2.179   3.046   6.094
   428G11  C00O28825   2.269   3.100   6.001
   428G11  C00N28826   2.311   3.028   5.892
   428G11  C01028827   2.383   3.087   5.790
   428G11  C01128828   2.427   3.014   5.680
   428G11  C01Q28829   2.490   3.081   5.574
   428G11  C01U28830   2.529   3.213   5.580
   428G11  C01228831   2.492   3.284   5.699
   428G11  H00028832   2.511   3.390   5.704
   428G11  C01V28833   2.597   3.269   5.472
   428G11  H00728834   2.622   3.374   5.479
   428G11  O00528835   2.631   3.206   5.354
   428G11  C01W28836   2.580   3.079   5.342
   428G11  C03128837   2.574   3.018   5.217
   428G11  C03228838   2.496   2.899   5.198
   428G11  H00A28839   2.481   2.849   5.104
   428G11  C03328840   2.442   2.836   5.309
   428G11  H00B28841   2.386   2.745   5.299
   428G11  C01O28842   2.466   2.883   5.439
   428G11  C01N28843   2.422   2.808   5.549
   428G11  C01M28844   2.399   2.661   5.547
   428G11  C01L28845   2.400   2.541   5.458
   428G11  C01K28846   2.349   2.436   5.537
   428G11  C01Y28847   2.292   2.314   5.487
   428G11  C02I28848   2.306   2.285   5.352
   428G11  C02N28849   2.249   2.165   5.306
   428G11  C02M28850   2.267   2.134   5.168
   428G11  C02L28851   2.339   2.214   5.081
   428G11  C02K28852   2.403   2.331   5.132
   428G11  C02U28853   2.482   2.400   5.042
   428G11  C02V28854   2.497   2.361   4.907
   428G11  C03H28855   2.576   2.444   4.822
   428G11  H00C28856   2.630   2.533   4.849
   428G11  C02W28857   2.562   2.499   5.101
   428G11  C02X28858   2.537   2.537   5.233
   428G11  C02Y28859   2.635   2.629   5.266
   428G11  H00828860   2.651   2.679   5.360
   428G11  C02Z28861   2.714   2.659   5.137
   428G11  O00428862   2.808   2.730   5.121
   428G11  O00328863   2.665   2.575   5.055
   428G11  C02J28864   2.381   2.375   5.269
   428G11  C01Z28865   2.214   2.246   5.581
   428G11  C02028866   2.182   2.298   5.701
   428G11  C01I28867   2.229   2.420   5.742
   428G11  C01H28868   2.177   2.494   5.848
   428G11  C00K28869   2.218   2.625   5.869
   428G11  C01S28870   2.291   2.688   5.777
   428G11  C01428871   2.326   2.823   5.780
   428G11  C00J28872   2.167   2.702   5.973
   428G11  C00I28873   2.074   2.642   6.055
   428G11  C00H28874   2.028   2.511   6.031
   428G11  C00G28875   1.928   2.452   6.108
   428G11  C00S28876   2.016   2.717   6.155
   428G11  C00T28877   1.916   2.655   6.224
   428G11  C00U28878   1.853   2.735   6.313
   428G11  C00R28879   2.051   2.856   6.174
   428G11  C00L28880   2.197   2.839   5.983
   428G11  C02828881   2.083   2.438   5.925
   428G11  C02328882   2.030   2.314   5.893
   428G11  C02428883   1.921   2.261   5.962
   428G11  C02128884   2.077   2.249   5.780
   428G11  C02228885   2.016   2.134   5.743
   428G11  C02H28886   1.906   2.082   5.809
   428G11  C03028887   1.841   1.968   5.767
   428G11  C03428888   1.895   1.897   5.663
   428G11  C02P28889   2.061   2.074   5.628
   428G11  C02B28890   2.157   2.132   5.540
   428G11  C01J28891   2.317   2.481   5.661
   428G11  C01X28892   2.434   2.500   5.318
   428G11  C01T28893   2.343   2.614   5.668
   428G11  H00928894   2.629   3.063   5.136
   428G11  C01P28895   2.519   3.012   5.454
   428G11  C01R28896   2.389   2.880   5.668
   428G11  C00Z28897   2.417   3.221   5.801
   428G11  O00028898   2.379   3.296   5.909
   428G11  C00M28899   2.280   2.895   5.885
   428G11  C00Y28900   2.301   3.236   6.005
   428G11  C01328901   2.253   3.319   6.117
   428G11  H00128902   2.284   3.422   6.129
   428G11  C00Q28903   2.142   2.912   6.084
   428G11  C00128904   2.168   3.264   6.212
   428G11  C00028905   2.113   3.335   6.320
   428G11  H00628906   2.151   3.435   6.337
   428G11  C00W28907   1.977   2.940   6.258
   428G11  C01G28908   1.995   3.295   6.379
   428G11  H00528909   1.950   3.366   6.447
   428G11  C01C28910   1.748   3.259   6.511
   428G11  H00228911   1.767   3.366   6.507
   428G11  C01B28912   1.638   3.204   6.582
   428G11  C01D28913   1.556   3.271   6.667
   428G11  H00328914   1.559   3.375   6.694
   428G11  C01E28915   1.449   3.196   6.710
   428G11  H00428916   1.377   3.241   6.776
   428G11  O00228917   1.424   3.062   6.682
   428G11  C01A28918   1.615   3.069   6.538
   428G11  C00V28919   1.874   2.872   6.329
   428G11  C01928920   1.511   2.996   6.599
   428G11  C02E28921   1.125   2.537   6.630
   428G11  C0FX28922   1.011   2.497   6.693
   428G11  C0FW28923   0.957   2.368   6.669
   428G11  C0GB28924   0.945   2.579   6.779
   428G11  C0G328925   1.198   2.446   6.551
   428G11  C07H28926   1.144   2.320   6.518
   428G11  C0GC28927   0.989   2.709   6.799
   428G11  C0G228928   0.831   2.530   6.849
   428G11  C0G128929   0.777   2.409   6.817
   428G11  C0FB28930   0.489   2.203   6.916
   428G11  C0F228931   0.584   2.060   6.694
   428G11  C0FY28932   0.839   2.330   6.725
   428G11  C0F528933   0.762   2.015   6.541
   428G11  C0FV28934   1.019   2.282   6.569
   428G11  C07928935   0.947   1.972   6.389
   428G11  C07A28936   1.130   1.928   6.239
   428G11  C06Y28937   1.372   1.995   6.137
   428G11  C07D28938   1.204   2.234   6.428
   428G11  C01F28939   1.316   2.480   6.491
   428G11  C00A28940   1.496   2.638   6.471
   428G11  C00X28941   1.732   2.690   6.357
   428G11  C00F28942   1.872   2.525   6.205
   428G11  C02928943   1.578   2.323   6.286
   428G11  C02528944   1.868   2.333   6.064
   428G11  C06U28945   1.561   2.143   6.135
   428G11  C02A28946   1.858   2.148   5.916
   428G11  C05Y28947   1.718   1.931   5.814
   428G11  C05Z28948   1.649   1.817   5.761
   428G11  C06028949   1.700   1.747   5.655
   428G11  C06228950   1.630   1.644   5.588
   428G11  C06T28951   1.494   2.032   6.082
   428G11  C06A28952   1.525   1.778   5.815
   428G11  C06Z28953   1.301   1.891   6.081
   428G11  C06Q28954   1.160   1.678   5.978
   428G11  C06828955   1.454   1.672   5.755
   428G11  C06728956   1.503   1.602   5.643
   428G11  C06328957   1.275   1.298   5.473
   428G11  C06C28958   1.185   1.209   5.408
   428G11  C06D28959   1.215   1.147   5.294
   428G11  C06E28960   1.129   1.079   5.209
   428G11  C07Q28961   0.993   1.070   5.248
   428G11  C07P28962   0.962   1.117   5.377
   428G11  C07T28963   0.836   1.101   5.422
   428G11  C07U28964   0.798   1.157   5.543
   428G11  C07V28965   0.666   1.147   5.584
   428G11  C08428966   0.568   1.097   5.497
   428G11  C08C28967   0.607   1.043   5.374
   428G11  C08B28968   0.513   1.010   5.283
   428G11  C08A28969   0.553   0.958   5.163
   428G11  C08928970   0.684   0.937   5.123
   428G11  C08828971   0.714   0.902   4.994
   428G11  C08728972   0.844   0.926   4.944
   428G11  C08628973   0.940   0.977   5.032
   428G11  C08X28974   0.619   0.861   4.904
   428G11  C08T28975   0.483   0.901   4.936
   428G11  C08D28976   0.778   0.996   5.212
   428G11  C08U28977   0.458   0.944   5.064
   428G11  C08V28978   0.327   0.969   5.089
   428G11  C0CY28979   0.278   1.004   5.215
   428G11  C0CX28980   0.150   1.025   5.227
   428G11  C0CW28981   0.108   1.058   5.356
   428G11  C0CV28982   0.198   1.081   5.457
   428G11  C0D428983   0.337   1.069   5.432
   428G11  C0CU28984   0.154   1.117   5.584
   428G11  C0CT28985   0.020   1.147   5.606
   428G11  C0CS28986  -0.067   1.130   5.500
   428G11  C0D628987   0.255   1.141   5.673
   428G11  C0EC28988   0.393   1.134   5.651
   428G11  C07X28989   0.483   1.189   5.737
   428G11  C0DL28990   0.206   1.182   5.801
   428G11  C0DK28991   0.300   1.233   5.883
   428G11  C0DN28992   0.233   1.302   5.976
   428G11  C0D828993   0.077   1.223   5.830
   428G11  C08W28994   0.251   0.946   4.977
   428G11  C0CQ28995   0.105   0.955   4.989
   428G11  C09328996   0.376   1.031   5.307
   428G11  C09228997   0.433   1.092   5.530
   428G11  C08528998   0.741   1.045   5.339
   428G11  C07S28999   0.907   1.006   5.165
   428G11  C06F29000   1.167   1.029   5.084
   428G11  C07O29001   1.056   1.192   5.457
   428G11  C07N29002   1.017   1.251   5.579
   428G11  C05D29003   1.347   1.148   5.257
   428G11  C05C29004   1.385   1.100   5.140
   428G11  C05N29005   1.510   1.141   5.108
   428G11  C05M29006   1.666   1.451   5.276
   428G11  C05I29007   1.673   1.593   5.464
   428G11  C06129008   1.824   1.791   5.603
   428G11  C02Q29009   2.002   1.951   5.603
   428G11  C02O29010   2.183   2.089   5.408
   428G11  C03Q29011   2.007   1.792   5.300
   428G11  C03O29012   1.999   1.713   5.079
   428G11  C03L29013   2.172   1.814   4.791
   428G11  C02S29014   2.208   2.015   5.103
   428G11  C02T29015   2.358   2.172   4.943
   428G11  C03K29016   2.249   1.901   4.699
   428G11  C03I29017   2.438   2.248   4.855
   428G11  C03G29018   2.598   2.408   4.692
   428G11  H00D29019   2.673   2.455   4.630
   428G11  C03J29020   2.424   2.058   4.541
   428G11  C03W29021   2.479   2.007   4.269
   428G11  C04I29022   2.321   1.830   4.274
   428G11  C04K29023   2.166   1.627   4.165
   428G11  C04N29024   2.073   1.533   4.123
   428G11  C04X29025   1.899   1.364   4.163
   428G11  C05029026   1.733   1.181   4.215
   428G11  C05W29027   1.806   1.202   4.485
   428G11  C05S29028   1.389   0.976   4.467
   428G11  C05R29029   1.629   1.062   4.696
   428G11  C05O29030   1.564   1.115   4.975
   428G11  C05B29031   1.297   1.036   5.046
   428G11  C05A29032   1.308   0.958   4.694
   428G11  C07R29033   1.068   0.993   4.988
   428G11  C08N29034   0.876   0.901   4.809
   428G11  C08M29035   0.779   0.826   4.734
   428G11  C08L29036   0.812   0.788   4.606
   428G11  C09129037   1.267   0.975   4.557
   428G11  C09K29038   1.066   0.963   4.272
   428G11  H00M29039   1.117   1.049   4.231
   428G11  C08K29040   0.935   0.834   4.552
   428G11  C09J29041   0.956   0.891   4.216
   428G11  C09I29042   0.846   0.909   4.128
   428G11  C09L29043   0.842   0.967   3.996
   428G11  H00N29044   0.930   1.021   3.966
   428G11  C09Q29045   0.734   0.942   3.921
   428G11  H00O29046   0.740   0.976   3.819
   428G11  O00B29047   0.631   0.864   3.963
   428G11  C09G29048   0.631   0.796   4.081
   428G11  C09F29049   0.513   0.727   4.120
   428G11  O00A29050   0.426   0.718   4.017
   428G11  C09P29051   0.301   0.665   4.044
   428G11  H00P29052   0.254   0.599   3.973
   428G11  C09O29053   0.246   0.707   4.168
   428G11  C09D29054   0.330   0.679   4.281
   428G11  C09C29055   0.291   0.669   4.421
   428G11  C09N29056   0.172   0.705   4.493
   428G11  C09T29057   0.079   0.790   4.431
   428G11  C09S29058   0.065   0.829   4.294
   428G11  C0CP29059  -0.040   0.917   4.291
   428G11  C0CN29060  -0.086   0.953   4.420
   428G11  C0CO29061  -0.173   1.063   4.426
   428G11  H01429062  -0.213   1.089   4.524
   428G11  C0CZ29063  -0.216   1.120   4.300
   428G11  H01529064  -0.306   1.181   4.301
   428G11  C0D029065  -0.157   1.086   4.174
   428G11  C0G529066  -0.192   1.144   4.051
   428G11  H01F29067  -0.267   1.222   4.054
   428G11  C0G429068  -0.141   1.102   3.932
   428G11  H01G29069  -0.167   1.145   3.836
   428G11  O00H29070  -0.047   0.997   3.924
   428G11  C0D229071  -0.013   0.945   4.044
   428G11  C09V29072   0.093   0.854   4.053
   428G11  H00Q29073   0.131   0.822   3.957
   428G11  C0D129074  -0.065   0.984   4.164
   428G11  C09R29075   0.134   0.796   4.175
   428G11  C09H29076   0.745   0.817   4.163
   428G11  C09E29077   0.474   0.682   4.253
   428G11  C09B29078   0.383   0.627   4.518
   428G11  C08Z29079   0.717   0.717   4.529
   428G11  C08O29080   0.650   0.802   4.784
   428G11  C09A29081   0.331   0.645   4.644
   428G11  C08S29082   0.347   0.905   4.883
   428G11  C09929083   0.201   0.708   4.633
   428G11  C09U29084  -0.020   0.866   4.511
   428G11  C0BO29085  -0.351   0.983   4.832
   428G11  C0CL29086   0.019   0.930   4.881
   428G11  C0D329087   0.067   1.001   5.119
   428G11  C0D529088  -0.025   1.087   5.375
   428G11  C0BR29089  -0.293   1.050   5.058
   428G11  C0BQ29090  -0.387   1.037   4.955
   428G11  C0BL29091  -0.564   1.032   4.735
   428G11  C0AF29092  -0.818   1.147   4.764
   428G11  C0BH29093  -0.677   1.202   5.106
   428G11  C0BG29094  -0.715   1.264   5.226
   428G11  C0BD29095  -0.939   1.311   5.135
   428G11  C0AG29096  -0.935   1.210   4.786
   428G11  C0AI29097  -1.119   1.323   4.672
   428G11  C0AV29098  -1.289   1.529   4.666
   428G11  C0BB29099  -1.259   1.455   5.034
   428G11  O00C29100  -1.370   1.709   4.804
   428G11  C0BC29101  -1.289   1.549   5.130
   428G11  C0B929102  -1.059   1.381   5.146
   428G11  O00E29103  -1.021   1.536   5.478
   428G11  C0CA29104  -0.956   1.523   5.593
   428G11  O00F29105  -0.994   1.578   5.694
   428G11  C0BF29106  -0.848   1.314   5.243
   428G11  C0C529107  -0.839   1.440   5.586
   428G11  C0C429108  -0.762   1.426   5.702
   428G11  H01129109  -0.790   1.467   5.798
   428G11  C0C829110  -0.631   1.263   5.335
   428G11  C0C229111  -0.642   1.354   5.696
   428G11  C0C329112  -0.554   1.325   5.799
   428G11  C0DY29113  -0.575   1.351   5.943
   428G11  H01629114  -0.660   1.381   6.002
   428G11  C0DX29115  -0.449   1.326   6.001
   428G11  C0DW29116  -0.434   1.299   6.140
   428G11  C0BY29117  -0.417   1.207   5.430
   428G11  C0DB29118  -0.424   1.291   5.782
   428G11  C0CC29119  -0.197   1.170   5.522
   428G11  C0D729120  -0.021   1.195   5.730
   428G11  C0DZ29121  -0.352   1.291   5.902
   428G11  C0DM29122   0.091   1.289   5.954
   428G11  C0DQ29123  -0.199   1.382   6.147
   428G11  C0DV29124  -0.325   1.373   6.197
   428G11  C0E029125  -0.524   1.262   6.247
   428G11  C0FO29126  -0.433   1.241   6.589
   428G11  C0E329127  -0.560   1.130   6.294
   428G11  H01729128  -0.557   1.037   6.240
   428G11  C0GV29129  -0.453   1.105   6.618
   428G11  C0ES29130  -0.308   1.294   6.622
   428G11  C0GQ29131  -0.206   1.045   6.880
   428G11  C0FJ29132   0.045   1.307   6.962
   428G11  C0ED29133  -0.049   1.404   6.714
   428G11  C0ER29134   0.111   1.716   6.791
   428G11  C0EP29135   0.239   1.715   6.591
   428G11  C0E629136  -0.030   1.482   6.474
   428G11  C0DE29137   0.144   1.479   6.217
   428G11  C0EA29138   0.411   1.680   6.404
   428G11  C0DF29139   0.257   1.493   6.133
   428G11  C08029140   0.606   1.512   6.175
   428G11  C0DO29141   0.303   1.398   6.045
   428G11  C0DJ29142   0.438   1.248   5.851
   428G11  C07K29143   0.755   1.425   5.964
   428G11  C07W29144   0.621   1.201   5.703
   428G11  C08329145   0.885   1.235   5.619
   428G11  C07J29146   0.880   1.444   5.914
   428G11  C06O29147   1.135   1.506   5.809
   428G11  C06M29148   1.099   1.342   5.640
   438G11  C07129149   2.597   3.567  10.692
   438G11  C07L29150   2.475   3.504  10.669
   438G11  C07M29151   2.354   3.567  10.704
   438G11  C07Y29152   2.229   3.509  10.676
   438G11  C08129153   2.217   3.386  10.616
   438G11  C08229154   2.086   3.340  10.589
   438G11  C0DI29155   2.040   3.208  10.541
   438G11  C0DH29156   2.112   3.104  10.474
   438G11  C0DG29157   2.017   3.000  10.437
   438G11  C0E929158   2.013   2.910  10.322
   438G11  C0E829159   1.870   2.889  10.302
   438G11  C0E729160   1.802   2.766  10.245
   438G11  C0EB29161   1.876   2.656  10.190
   438G11  C0EF29162   1.830   2.517  10.171
   438G11  C0EE29163   1.722   2.439  10.221
   438G11  C0FD29164   1.749   2.304  10.256
   438G11  C0FE29165   1.870   2.240  10.257
   438G11  H01B29166   1.964   2.290  10.237
   438G11  C0FF29167   1.889   2.113  10.293
   438G11  H01A29168   1.987   2.068  10.298
   438G11  C0FG29169   1.780   2.036  10.329
   438G11  H01829170   1.786   1.931  10.354
   438G11  C0FH29171   1.651   2.091  10.331
   438G11  C0FI29172   1.532   2.023  10.373
   438G11  H01929173   1.533   1.918  10.398
   438G11  O00K29174   1.412   2.081  10.375
   438G11  C0FL29175   1.401   2.209  10.333
   438G11  C0FK29176   1.507   2.290  10.294
   438G11  C0FM29177   1.486   2.420  10.255
   438G11  C0FN29178   1.356   2.465  10.240
   438G11  C0FP29179   1.249   2.385  10.289
   438G11  C0GO29180   1.120   2.431  10.302
   438G11  C0GN29181   1.014   2.373  10.370
   438G11  C0GR29182   1.049   2.246  10.423
   438G11  C0GS29183   0.951   2.171  10.493
   438G11  H01Q29184   0.976   2.071  10.524
   438G11  C0GT29185   0.830   2.229  10.520
   438G11  H01O29186   0.757   2.178  10.581
   438G11  C0GU29187   0.805   2.364  10.475
   438G11  H01P29188   0.711   2.411  10.497
   438G11  O00L29189   1.172   2.191  10.401
   438G11  C0GM29190   0.892   2.441  10.399
   438G11  C0GL29191   0.879   2.577  10.358
   438G11  H01R29192   0.795   2.633  10.395
   438G11  C0GK29193   0.979   2.631  10.280
   438G11  C0GP29194   1.010   2.759  10.219
   438G11  C0E229195   1.125   2.740  10.134
   438G11  C0E129196   1.193   2.869  10.118
   438G11  C0DU29197   1.323   2.897  10.167
   438G11  C0DT29198   1.433   2.817  10.189
   438G11  C0E429199   1.433   2.682  10.196
   438G11  C0E529200   1.568   2.642  10.221
   438G11  C0DS29201   1.559   2.864  10.234
   438G11  C0DR29202   1.557   2.998  10.276
   438G11  C0DD29203   1.661   3.055  10.351
   438G11  C0DC29204   1.599   3.184  10.402
   438G11  C0DP29205   1.464   3.203  10.362
   438G11  C0DA29206   1.374   3.319  10.381
   438G11  C0D929207   1.385   3.449  10.452
   438G11  C0CR29208   1.277   3.550  10.458
   438G11  C0C029209   1.157   3.530  10.393
   438G11  C0BZ29210   1.051   3.616  10.385
   438G11  C0C129211   0.936   3.587  10.316
   438G11  C0C729212   0.836   3.678  10.305
   438G11  C0C629213   0.714   3.647  10.236
   438G11  C0C929214   0.610   3.733  10.250
   438G11  C0B829215   0.483   3.693  10.205
   438G11  C0B729216   0.366   3.767  10.232
   438G11  C0B629217   0.228   3.727  10.235
   438G11  C0B529218   0.183   3.599  10.285
   438G11  H00Z29219   0.241   3.510  10.267
   438G11  C0B429220   0.059   3.628  10.363
   438G11  H01029221   0.000   3.566  10.429
   438G11  C0B329222   0.030   3.767  10.344
   438G11  C0AP29223  -0.018   3.888  10.417
   438G11  C0AQ29224   0.054   4.001  10.355
   438G11  C0AR29225   0.070   4.123  10.417
   438G11  C0AS29226   0.187   4.185  10.383
   438G11  C0AT29227   0.302   4.126  10.327
   438G11  C0BA29228   0.286   3.997  10.279
   438G11  C0AU29229   0.427   4.171  10.359
   438G11  C0BE29230   0.537   4.079  10.353
   438G11  C0BI29231   0.655   4.115  10.414
   438G11  C0BJ29232   0.669   4.241  10.476
   438G11  C0BK29233   0.782   4.272  10.540
   438G11  C0BW29234   0.891   4.179  10.545
   438G11  C0BV29235   0.877   4.054  10.493
   438G11  C0BU29236   0.980   3.959  10.500
   438G11  C0BX29237   0.967   3.837  10.439
   438G11  C0BT29238   1.101   3.990  10.557
   438G11  C0CD29239   1.203   3.898  10.560
   438G11  C0CB29240   1.185   3.771  10.513
   438G11  C0CE29241   1.316   3.926  10.633
   438G11  C0CK29242   1.325   4.051  10.702
   438G11  C0BS29243   1.221   4.146  10.706
   438G11  C0CJ29244   1.229   4.266  10.777
   438G11  C0BP29245   1.128   4.362  10.754
   438G11  C0CI29246   1.135   4.486  10.821
   438G11  C0CH29247   1.051   4.590  10.766
   438G11  H01229248   1.064   4.695  10.790
   438G11  C0BN29249   0.931   4.561  10.696
   438G11  C0CG29250   0.828   4.655  10.695
   438G11  C0CF29251   0.844   4.794  10.738
   438G11  H01329252   0.934   4.834  10.780
   438G11  O00G29253   0.743   4.884  10.719
   438G11  C0AA29254   0.614   4.829  10.714
   438G11  C0A929255   0.509   4.913  10.747
   438G11  H00U29256   0.516   5.015  10.782
   438G11  C0A829257   0.380   4.857  10.751
   438G11  H00V29258   0.308   4.922  10.798
   438G11  C0A729259   0.350   4.723  10.716
   438G11  C0A629260   0.457   4.642  10.658
   438G11  C0A529261   0.450   4.525  10.589
   438G11  C0A429262   0.328   4.469  10.548
   438G11  C0A329263   0.192   4.478  10.596
   438G11  C0A229264   0.164   4.546  10.712
   438G11  C0A129265   0.028   4.545  10.755
   438G11  C0A029266  -0.075   4.441  10.758
   438G11  C09Z29267  -0.182   4.466  10.845
   438G11  C09Y29268  -0.263   4.357  10.892
   438G11  H00Y29269  -0.341   4.379  10.964
   438G11  C09X29270  -0.219   4.224  10.870
   438G11  C09W29271  -0.270   4.117  10.949
   438G11  H00R29272  -0.335   4.131  11.034
   438G11  C0AX29273  -0.236   3.988  10.918
   438G11  H00S29274  -0.268   3.910  10.986
   438G11  C0AW29275  -0.173   3.964  10.794
   438G11  H00T29276  -0.142   3.861  10.782
   438G11  C0AN29277  -0.126   4.069  10.714
   438G11  C0AO29278  -0.066   4.047  10.590
   438G11  C0AM29279  -0.136   4.200  10.762
   438G11  C0B229280  -0.226   4.601  10.882
   438G11  O00D29281  -0.337   4.633  10.925
   438G11  C0B129282  -0.130   4.706  10.863
   438G11  H00W29283  -0.165   4.800  10.903
   438G11  C0AL29284  -0.068   4.308  10.698
   438G11  C0AK29285   0.008   4.280  10.588
   438G11  C0B029286  -0.005   4.674  10.806
   438G11  C0AZ29287   0.114   4.754  10.799
   438G11  H00X29288   0.129   4.853  10.839
   438G11  C0AJ29289   0.120   4.364  10.547
   438G11  C0AH29290   0.332   4.372  10.450
   438G11  C0AE29291   0.566   4.445  10.561
   438G11  C0AD29292   0.686   4.484  10.610
   438G11  C0AY29293   0.215   4.672  10.742
   438G11  C0AB29294   0.591   4.693  10.676
   438G11  C0AC29295   0.704   4.609  10.656
   438G11  C0BM29296   0.918   4.430  10.654
   438G11  C0CM29297   1.227   4.504  10.932
   438G11  C09M29298   1.344   4.419  10.949
   438G11  C09829299   1.443   4.456  11.048
   438G11  C08R29300   1.586   4.419  11.061
   438G11  C08Q29301   1.656   4.481  11.166
   438G11  C08P29302   1.792   4.523  11.190
   438G11  C08Y29303   1.809   4.651  11.259
   438G11  C09729304   1.700   4.732  11.276
   438G11  C09629305   1.730   4.861  11.249
   438G11  C09029306   1.872   4.870  11.262
   438G11  C09529307   1.953   4.972  11.203
   438G11  C09429308   2.092   4.965  11.190
   438G11  C08J29309   2.190   4.874  11.231
   438G11  C08I29310   2.310   4.904  11.149
   438G11  C08H29311   2.389   4.786  11.145
   438G11  C08G29312   2.294   4.679  11.161
   438G11  C08F29313   2.287   4.536  11.133
   438G11  C08E29314   2.404   4.461  11.117
   438G11  C05929315   2.535   4.507  11.156
   438G11  C05829316   2.651   4.420  11.151
   438G11  C05729317   2.786   4.450  11.175
   438G11  C05629318   2.804   4.588  11.207
   438G11  C05529319   2.702   4.669  11.246
   438G11  C05429320   2.749   4.800  11.231
   438G11  C05329321   2.885   4.804  11.184
   438G11  C05229322   2.968   4.915  11.142
   438G11  C05129323   2.913   5.049  11.143
   438G11  C05U29324   2.778   5.091  11.176
   438G11  C05T29325   2.648   5.025  11.180
   438G11  C06K29326   2.557   5.120  11.233
   438G11  H00J29327   2.454   5.089  11.249
   438G11  C06L29328   2.622   5.243  11.254
   438G11  H00I29329   2.568   5.331  11.285
   438G11  C05V29330   2.757   5.229  11.203
   438G11  C06J29331   2.846   5.327  11.192
   438G11  H00K29332   2.822   5.429  11.218
   438G11  C05X29333   2.965   5.298  11.129
   438G11  C06I29334   3.064   5.397  11.094
   438G11  H00L29335   3.062   5.499  11.127
   438G11  C04Z29336   3.184   5.364  11.022
   438G11  C06H29337   3.277   5.468  10.982
   438G11  H00H29338   3.258   5.572  11.005
   438G11  C04Y29339   3.396   5.432  10.911
   438G11  C06G29340   3.475   5.541  10.856
   438G11  O00929341   3.450   5.658  10.885
   438G11  O00829342   3.583   5.505  10.774
   438G11  C04P29343   3.608   5.375  10.743
   438G11  C04J29344   3.711   5.336  10.652
   438G11  C04Q29345   3.791   5.425  10.570
   438G11  H00E29346   3.777   5.531  10.582
   438G11  C04M29347   3.875   5.372  10.472
   438G11  C04R29348   3.946   5.450  10.373
   438G11  H00F29349   3.929   5.556  10.378
   438G11  C04S29350   4.024   5.391  10.286
   438G11  H00G29351   4.082   5.448  10.214
   438G11  O00729352   4.048   5.253  10.285
   438G11  C03V29353   3.983   5.174  10.375
   438G11  C03U29354   4.011   5.041  10.372
   438G11  O00629355   4.116   4.994  10.302
   438G11  C03F29356   4.134   4.866  10.281
   438G11  C03E29357   4.049   4.767  10.340
   438G11  C03D29358   3.943   4.812  10.424
   438G11  C03C29359   3.864   4.717  10.489
   438G11  C03B29360   3.885   4.585  10.454
   438G11  C03A29361   3.790   4.489  10.499
   438G11  C03929362   3.686   4.523  10.586
   438G11  C03829363   3.613   4.399  10.606
   438G11  C03729364   3.691   4.307  10.534
   438G11  C03629365   3.673   4.171  10.560
   438G11  C02R29366   3.730   4.071  10.482
   438G11  C03529367   3.653   3.962  10.526
   438G11  C03R29368   3.549   3.994  10.613
   438G11  C03S29369   3.425   3.933  10.613
   438G11  C04929370   3.329   3.998  10.682
   438G11  C04829371   3.354   4.132  10.723
   438G11  C03P29372   3.468   4.208  10.684
   438G11  C04729373   3.254   4.176  10.813
   438G11  C04629374   3.254   4.299  10.877
   438G11  C04529375   3.335   4.407  10.860
   438G11  C03T29376   3.441   4.433  10.775
   438G11  C04429377   3.475   4.568  10.787
   438G11  C04329378   3.404   4.619  10.898
   438G11  C04229379   3.398   4.752  10.903
   438G11  C04129380   3.500   4.789  10.803
   438G11  C04029381   3.543   4.919  10.767
   438G11  C03Z29382   3.651   4.962  10.682
   438G11  C04H29383   3.651   5.105  10.703
   438G11  C04G29384   3.550   5.141  10.783
   438G11  C03N29385   3.748   4.902  10.594
   438G11  C03Y29386   3.827   4.997  10.526
   438G11  C03X29387   3.814   5.141  10.540
   438G11  C04F29388   3.477   5.033  10.822
   438G11  C04E29389   3.365   5.059  10.910
   438G11  C04O29390   3.335   5.196  10.937
   438G11  C04D29391   3.286   4.966  10.975
   438G11  C04V29392   3.166   5.006  11.040
   438G11  C04W29393   3.126   5.137  11.061
   438G11  C04C29394   3.296   4.826  10.974
   438G11  C04L29395   3.181   4.782  11.057
   438G11  C04U29396   3.143   4.647  11.076
   438G11  C05Q29397   3.023   4.603  11.135
   438G11  C05P29398   3.020   4.460  11.113
   438G11  C04T29399   3.129   4.423  11.040
   438G11  C04B29400   3.210   4.534  11.023
   438G11  C03M29401   3.555   4.678  10.731
   438G11  C04A29402   3.310   4.521  10.934
   438G11  C05H29403   3.152   4.302  10.972
   438G11  C05G29404   3.079   4.179  10.956
   438G11  C05F29405   2.950   4.153  11.010
   438G11  C05E29406   2.860   4.054  10.958
   438G11  C05L29407   2.861   3.939  10.864
   438G11  C05K29408   2.979   3.895  10.793
   438G11  C05J29409   3.102   3.971  10.784
   438G11  C06629410   2.968   3.774  10.722
   438G11  C06529411   2.845   3.697  10.721
   438G11  C06429412   2.730   3.750  10.786
   438G11  C06N29413   2.831   3.585  10.637
   438G11  C06929414   2.941   3.539  10.567
   438G11  C06P29415   2.931   3.419  10.497
   438G11  C06R29416   3.037   3.378  10.418
   438G11  C06B29417   3.158   3.449  10.415
   438G11  C06S29418   3.257   3.406  10.327
   438G11  C02G29419   3.372   3.480  10.319
   438G11  C02F29420   3.469   3.451  10.223
   438G11  C02729421   3.456   3.337  10.143
   438G11  C02629422   3.553   3.306  10.054
   438G11  C00E29423   3.547   3.187   9.986
   438G11  C00D29424   3.643   3.157   9.895
   438G11  C00C29425   3.633   3.042   9.822
   438G11  C00B29426   3.528   2.957   9.822
   438G11  C01529427   3.423   2.996   9.906
   438G11  C07F29428   3.303   2.926   9.903
   438G11  C07E29429   3.199   2.965   9.986
   438G11  C06W29430   3.214   3.066  10.081
   438G11  C06V29431   3.332   3.143  10.077
   438G11  C06X29432   3.114   3.106  10.166
   438G11  C07B29433   2.992   3.043  10.157
   438G11  C07C29434   2.974   2.940  10.064
   438G11  C0FU29435   2.848   2.883  10.042
   438G11  C0F729436   2.827   2.787   9.945
   438G11  C0F629437   2.701   2.732   9.932
   438G11  C0F829438   2.678   2.632   9.836
   438G11  C0F929439   2.554   2.574   9.820
   438G11  C0FA29440   2.534   2.475   9.722
   438G11  C0FZ29441   2.644   2.434   9.648
   438G11  C0G029442   2.622   2.344   9.545
   438G11  C0GD29443   2.495   2.287   9.514
   438G11  C0FC29444   2.390   2.324   9.597
   438G11  C0GH29445   2.259   2.270   9.578
   438G11  C0EY29446   2.161   2.302   9.667
   438G11  C0EX29447   2.031   2.232   9.661
   438G11  C0EW29448   1.932   2.264   9.755
   438G11  C0FR29449   1.802   2.229   9.732
   438G11  H01D29450   1.715   2.255   9.791
   438G11  C0FS29451   1.768   2.135   9.631
   438G11  H01C29452   1.668   2.100   9.613
   438G11  C0GJ29453   1.872   2.099   9.543
   438G11  H01N29454   1.839   2.048   9.454
   438G11  C0EV29455   1.964   2.352   9.861
   438G11  C0FT29456   1.878   2.365   9.974
   438G11  H01E29457   1.796   2.297   9.995
   438G11  C0EU29458   2.089   2.419   9.862
   438G11  C0ET29459   2.111   2.522   9.956
   438G11  C0EI29460   2.219   2.603   9.962
   438G11  C0F129461   2.324   2.563   9.877
   438G11  C0F029462   2.312   2.460   9.783
   438G11  C0EH29463   2.231   2.705  10.065
   438G11  C0EG29464   2.122   2.751  10.147
   438G11  C0EJ29465   2.355   2.766  10.076
   438G11  C0F329466   2.460   2.723   9.993
   438G11  C0EK29467   2.378   2.863  10.171
   438G11  C0EL29468   2.265   2.916  10.252
   438G11  C0EM29469   2.308   3.023  10.340
   438G11  C0EN29470   2.438   3.059  10.350
   438G11  C07I29471   2.455   3.166  10.437
   438G11  C07429472   2.583   3.221  10.464
   438G11  C07329473   2.581   3.335  10.544
   438G11  C07229474   2.703   3.394  10.561
   438G11  C07529475   2.687   3.173  10.385
   438G11  C07629476   2.663   3.070  10.297
   438G11  C07829477   2.765   3.019  10.221
   438G11  C07G29478   2.804   3.236  10.405
   438G11  C07029479   2.908   3.192  10.326
   438G11  C07Z29480   2.334   3.217  10.485
   438G11  C07729481   2.539   3.016  10.266
   438G11  C0EO29482   2.510   2.918  10.182
   438G11  C0F429483   2.613   2.873  10.104
   438G11  C0EQ29484   2.015   2.553  10.052
   438G11  C0FQ29485   2.003   2.145   9.555
   438G11  C0GI29486   2.105   2.123   9.465
   438G11  H01L29487   2.092   2.049   9.387
   438G11  C0EZ29488   2.186   2.393   9.774
   438G11  C0GG29489   2.235   2.179   9.478
   438G11  C0GF29490   2.339   2.144   9.388
   438G11  H01M29491   2.334   2.076   9.305
   438G11  C0GE29492   2.465   2.196   9.416
   438G11  H01K29493   2.542   2.158   9.351
   438G11  O00J29494   2.723   2.296   9.471
   438G11  C0GA29495   2.841   2.353   9.482
   438G11  C0G929496   2.944   2.307   9.405
   438G11  H01H29497   2.924   2.225   9.338
   438G11  C0G829498   3.073   2.364   9.412
   438G11  C0G729499   3.173   2.331   9.324
   438G11  H01I29500   3.143   2.266   9.243
   438G11  O00I29501   3.294   2.386   9.320
   438G11  C0G629502   3.324   2.482   9.412
   438G11  H01J29503   3.417   2.534   9.397
   438G11  C02D29504   3.228   2.519   9.516
   438G11  C02C29505   3.253   2.619   9.613
   438G11  C01729506   3.382   2.679   9.628
   438G11  C01629507   3.395   2.783   9.728
   438G11  O00129508   3.497   2.632   9.566
   438G11  C01829509   3.605   2.716   9.549
   438G11  C00929510   3.623   2.822   9.638
   438G11  C00829511   3.732   2.922   9.638
   438G11  C00729512   3.842   2.954   9.550
   438G11  C00629513   3.887   2.870   9.443
   438G11  C00529514   3.997   2.899   9.356
   438G11  C00429515   4.091   3.017   9.358
   438G11  C00329516   4.103   3.138   9.453
   438G11  C00229517   4.193   3.245   9.419
   438G11  C00P29518   4.203   3.365   9.491
   438G11  C00O29519   4.279   3.474   9.451
   438G11  C00N29520   4.284   3.593   9.519
   438G11  C01029521   4.366   3.704   9.485
   438G11  C01129522   4.369   3.826   9.559
   438G11  C01Q29523   4.447   3.936   9.509
   438G11  C01U29524   4.533   3.920   9.404
   438G11  C01229525   4.530   3.795   9.338
   438G11  H00029526   4.586   3.792   9.246
   438G11  C01V29527   4.618   4.028   9.368
   438G11  H00729528   4.685   4.025   9.283
   438G11  O00529529   4.603   4.152   9.431
   438G11  C01W29530   4.515   4.160   9.535
   438G11  C03129531   4.499   4.290   9.585
   438G11  C03229532   4.398   4.313   9.682
   438G11  H00A29533   4.395   4.416   9.714
   438G11  C03329534   4.323   4.206   9.738
   438G11  H00B29535   4.245   4.218   9.812
   438G11  C01O29536   4.351   4.075   9.692
   438G11  C01N29537   4.291   3.962   9.756
   438G11  C01M29538   4.214   3.966   9.884
   438G11  C01L29539   4.176   4.046  10.008
   438G11  C01K29540   4.084   3.971  10.079
   438G11  C01Y29541   3.997   4.005  10.186
   438G11  C02I29542   4.001   4.135  10.231
   438G11  C02N29543   3.912   4.168  10.336
   438G11  C02M29544   3.904   4.304  10.370
   438G11  C02L29545   3.992   4.400  10.319
   438G11  C02K29546   4.090   4.361  10.223
   438G11  C02U29547   4.178   4.457  10.176
   438G11  C02V29548   4.163   4.590  10.213
   438G11  C03H29549   4.243   4.696  10.152
   438G11  H00C29550   4.317   4.690  10.074
   438G11  C02W29551   4.282   4.420  10.098
   438G11  C02X29552   4.283   4.291  10.044
   438G11  C02Y29553   4.417   4.270   9.997
   438G11  H00829554   4.461   4.182   9.953
   438G11  C02Z29555   4.485   4.401  10.006
   438G11  O00429556   4.597   4.430   9.963
   438G11  O00329557   4.403   4.484  10.073
   438G11  C02J29558   4.098   4.221  10.176
   438G11  C01Z29559   3.912   3.905  10.221
   438G11  C02029560   3.904   3.784  10.159
   438G11  C01I29561   3.987   3.748  10.058
   438G11  C01H29562   3.968   3.645   9.973
   438G11  C00K29563   4.053   3.630   9.863
   438G11  C01S29564   4.138   3.732   9.823
   438G11  C01429565   4.217   3.726   9.711
   438G11  C00J29566   4.040   3.520   9.782
   438G11  C00I29567   3.948   3.424   9.815
   438G11  C00H29568   3.857   3.449   9.914
   438G11  C00G29569   3.755   3.361   9.945
   438G11  C00S29570   3.945   3.307   9.740
   438G11  C00T29571   3.843   3.222   9.781
   438G11  C00U29572   3.831   3.104   9.710
   438G11  C00R29573   4.036   3.283   9.640
   438G11  C00L29574   4.126   3.500   9.673
   438G11  C02829575   3.867   3.559   9.994
   438G11  C02329576   3.778   3.586  10.093
   438G11  C02429577   3.671   3.501  10.111
   438G11  C02129578   3.797   3.697  10.175
   438G11  C02229579   3.704   3.726  10.270
   438G11  C02H29580   3.597   3.640  10.290
   438G11  C03029581   3.504   3.667  10.383
   438G11  C03429582   3.516   3.778  10.463
   438G11  C02P29583   3.723   3.839  10.346
   438G11  C02B29584   3.820   3.936  10.317
   438G11  C01J29585   4.076   3.845  10.023
   438G11  C01X29586   4.188   4.185  10.067
   438G11  C01T29587   4.150   3.843   9.908
   438G11  H00929588   4.562   4.373   9.556
   438G11  C01P29589   4.439   4.059   9.584
   438G11  C01R29590   4.296   3.839   9.683
   438G11  C00Z29591   4.443   3.685   9.369
   438G11  O00029592   4.439   3.573   9.291
   438G11  C00M29593   4.210   3.607   9.635
   438G11  C00Y29594   4.355   3.472   9.334
   438G11  C01329595   4.353   3.350   9.266
   438G11  H00129596   4.408   3.339   9.173
   438G11  C00Q29597   4.126   3.377   9.603
   438G11  C00129598   4.276   3.236   9.304
   438G11  C00029599   4.279   3.114   9.237
   438G11  H00629600   4.346   3.108   9.152
   438G11  C00W29601   4.025   3.164   9.566
   438G11  C01G29602   4.187   3.015   9.257
   438G11  H00529603   4.180   2.936   9.183
   438G11  C01C29604   4.003   2.787   9.264
   438G11  H00229605   4.064   2.754   9.182
   438G11  C01B29606   3.903   2.697   9.309
   438G11  C01D29607   3.880   2.563   9.258
   438G11  H00329608   3.936   2.524   9.174
   438G11  C01E29609   3.764   2.501   9.296
   438G11  H00429610   3.733   2.409   9.251
   438G11  O00229611   3.683   2.552   9.394
   438G11  C01A29612   3.822   2.751   9.409
   438G11  C00V29613   3.910   3.072   9.598
   438G11  C01929614   3.700   2.681   9.447
   438G11  C02E29615   3.142   2.667   9.690
   438G11  C0FX29616   3.020   2.603   9.685
   438G11  C0FW29617   2.912   2.645   9.769
   438G11  C0GB29618   2.997   2.507   9.590
   438G11  C0G329619   3.163   2.765   9.793
   438G11  C07H29620   3.059   2.803   9.878
   438G11  C0GC29621   3.098   2.463   9.506
   438G11  C0G229622   2.870   2.454   9.579
   438G11  C0G129623   2.767   2.492   9.661
   438G11  C0FB29624   2.412   2.416   9.701
   438G11  C0F229625   2.446   2.620   9.897
   438G11  C0FY29626   2.782   2.596   9.752
   438G11  C0F529627   2.592   2.774  10.011
   438G11  C0FV29628   2.933   2.741   9.868
   438G11  C07929629   2.742   2.924  10.122
   438G11  C07A29630   2.886   3.083  10.234
   438G11  C06Y29631   3.129   3.215  10.251
   438G11  C07D29632   3.080   2.900   9.980
   438G11  C01F29633   3.287   2.822   9.808
   438G11  C00A29634   3.519   2.847   9.737
   438G11  C00X29635   3.735   3.013   9.737
   438G11  C00F29636   3.742   3.244   9.873
   438G11  C02929637   3.434   3.106   9.993
   438G11  C02529638   3.656   3.391  10.035
   438G11  C06U29639   3.348   3.257  10.156
   438G11  C02A29640   3.579   3.534  10.204
   438G11  C05Y29641   3.386   3.598  10.395
   438G11  C05Z29642   3.283   3.638  10.483
   438G11  C06029643   3.296   3.752  10.554
   438G11  C06229644   3.194   3.800  10.634
   438G11  C06T29645   3.247   3.289  10.248
   438G11  C06A29646   3.164   3.567  10.487
   438G11  C06Z29647   3.022   3.267  10.333
   438G11  C06Q29648   2.812   3.350  10.487
   438G11  C06829649   3.060   3.610  10.573
   438G11  C06729650   3.074   3.732  10.642
   438G11  C06329651   2.734   3.867  10.859
   438G11  C06C29652   2.613   3.920  10.910
   438G11  C06D29653   2.610   4.043  10.974
   438G11  C06E29654   2.496   4.120  11.010
   438G11  C07Q29655   2.378   4.062  10.972
   438G11  C07P29656   2.376   3.939  10.906
   438G11  C07T29657   2.254   3.889  10.867
   438G11  C07U29658   2.250   3.768  10.803
   438G11  C07V29659   2.132   3.716  10.762
   438G11  C08429660   2.012   3.793  10.776
   438G11  C08C29661   2.020   3.915  10.845
   438G11  C08B29662   1.905   3.992  10.860
   438G11  C08A29663   1.913   4.107  10.926
   438G11  C08929664   2.027   4.164  10.976
   438G11  C08829665   2.029   4.287  11.041
   438G11  C08729666   2.153   4.342  11.076
   438G11  C08629667   2.269   4.266  11.053
   438G11  C08X29668   1.913   4.359  11.056
   438G11  C08T29669   1.794   4.308  10.987
   438G11  C08D29670   2.142   4.092  10.959
   438G11  C08U29671   1.800   4.187  10.925
   438G11  C08V29672   1.678   4.144  10.878
   438G11  C0CY29673   1.670   4.023  10.814
   438G11  C0CX29674   1.550   3.993  10.769
   438G11  C0CW29675   1.536   3.868  10.703
   438G11  C0CV29676   1.650   3.790  10.690
   438G11  C0D429677   1.779   3.830  10.739
   438G11  C0CU29678   1.644   3.665  10.631
   438G11  C0CT29679   1.521   3.620  10.573
   438G11  C0CS29680   1.412   3.702  10.576
   438G11  C0D629681   1.754   3.590  10.630
   438G11  C0EC29682   1.880   3.627  10.670
   438G11  C07X29683   1.992   3.549  10.656
   438G11  C0DL29684   1.735   3.463  10.579
   438G11  C0DK29685   1.845   3.383  10.577
   438G11  C0DN29686   1.804   3.265  10.530
   438G11  C0D829687   1.620   3.408  10.522
   438G11  C08W29688   1.578   4.238  10.899
   438G11  C0CQ29689   1.446   4.203  10.847
   438G11  C09329690   1.788   3.949  10.806
   438G11  C09229691   1.891   3.749  10.728
   438G11  C08529692   2.138   3.965  10.892
   438G11  C07S29693   2.264   4.133  10.998
   438G11  C06F29694   2.505   4.241  11.073
   438G11  C07O29695   2.489   3.861  10.879
   438G11  C07N29696   2.485   3.744  10.807
   438G11  C05D29697   2.734   4.089  11.010
   438G11  C05C29698   2.741   4.210  11.080
   438G11  C05N29699   2.873   4.250  11.081
   438G11  C05M29700   3.136   4.099  10.848
   438G11  C05I29701   3.207   3.924  10.699
   438G11  C06129702   3.412   3.820  10.541
   438G11  C02Q29703   3.627   3.857  10.441
   438G11  C02O29704   3.825   4.062  10.378
   438G11  C03Q29705   3.566   4.125  10.627
   438G11  C03O29706   3.500   4.347  10.687
   438G11  C03L29707   3.662   4.660  10.633
   438G11  C02S29708   3.798   4.358  10.455
   438G11  C02T29709   3.977   4.538  10.358
   438G11  C03K29710   3.757   4.759  10.576
   438G11  C03I29711   4.064   4.630  10.307
   438G11  C03G29712   4.226   4.833  10.187
   438G11  H00D29713   4.287   4.911  10.144
   438G11  C03J29714   3.926   4.947  10.445
   438G11  C03W29715   3.891   5.228  10.469
   438G11  C04I29716   3.727   5.199  10.634
   438G11  C04K29717   3.530   5.276  10.802
   438G11  C04N29718   3.420   5.301  10.887
   438G11  C04X29719   3.214   5.230  11.009
   438G11  C05029720   3.002   5.163  11.117
   438G11  C05W29721   3.096   4.897  11.087
   438G11  C05S29722   2.630   4.877  11.197
   438G11  C05R29723   2.915   4.666  11.184
   438G11  C05O29724   2.896   4.381  11.126
   438G11  C05B29725   2.627   4.290  11.110
   438G11  C05A29726   2.577   4.641  11.195
   438G11  C07R29727   2.390   4.328  11.078
   438G11  C08N29728   2.162   4.474  11.128
   438G11  C08M29729   2.037   4.539  11.160
   438G11  C08L29730   2.039   4.669  11.210
   438G11  C09129731   2.527   4.777  11.186
   438G11  C09K29732   2.273   4.998  11.047
   438G11  H00M29733   2.321   5.015  10.952
   438G11  C08K29734   2.169   4.735  11.205
   438G11  C09J29735   2.140   5.047  11.084
   438G11  C09I29736   2.025   5.121  11.049
   438G11  C09L29737   2.017   5.244  10.974
   438G11  H00N29738   2.101   5.287  10.921
   438G11  C09Q29739   1.895   5.302  10.967
   438G11  H00O29740   1.898   5.401  10.926
   438G11  O00B29741   1.774   5.250  11.013
   438G11  C09G29742   1.781   5.135  11.094
   438G11  C09F29743   1.653   5.089  11.142
   438G11  O00A29744   1.554   5.180  11.129
   438G11  C09P29745   1.429   5.147  11.168
   438G11  H00P29746   1.362   5.224  11.204
   438G11  C09O29747   1.385   5.009  11.161
   438G11  C09D29748   1.490   4.913  11.187
   438G11  C09C29749   1.477   4.766  11.199
   438G11  C09N29750   1.381   4.680  11.137
   438G11  C09T29751   1.288   4.729  11.044
   438G11  C09S29752   1.218   4.846  11.087
   438G11  C0CP29753   1.086   4.807  11.089
   438G11  C0CN29754   1.068   4.674  11.044
   438G11  C0CO29755   0.942   4.606  11.055
   438G11  H01429756   0.919   4.502  11.037
   438G11  C0CZ29757   0.837   4.691  11.103
   438G11  H01529758   0.741   4.641  11.106
   438G11  C0D029759   0.855   4.824  11.149
   438G11  C0G529760   0.756   4.910  11.206
   438G11  H01F29761   0.658   4.868  11.226
   438G11  C0G429762   0.780   5.039  11.238
   438G11  H01G29763   0.693   5.087  11.280
   438G11  O00H29764   0.909   5.094  11.242
   438G11  C0D229765   1.009   5.015  11.193
   438G11  C09V29766   1.141   5.056  11.183
   438G11  H00Q29767   1.165   5.153  11.224
   438G11  C0D129768   0.986   4.886  11.139
   438G11  C09R29769   1.249   4.972  11.143
   438G11  C09H29770   1.908   5.077  11.120
   438G11  C09E29771   1.629   4.956  11.195
   438G11  C09B29772   1.575   4.684  11.254
   438G11  C08Z29773   1.916   4.732  11.247
   438G11  C08O29774   1.912   4.477  11.133
   438G11  C09A29775   1.548   4.546  11.234
   438G11  C08S29776   1.654   4.341  10.967
   438G11  C09929777   1.427   4.541  11.158
   438G11  C09U29778   1.200   4.628  10.999
   438G11  C0BO29779   1.021   4.333  10.664
   438G11  C0CL29780   1.343   4.298  10.861
   438G11  C0D329781   1.443   4.080  10.778
   438G11  C0D529782   1.422   3.831  10.637
   438G11  C0BR29783   1.108   4.118  10.626
   438G11  C0BQ29784   1.007   4.210  10.612
   438G11  C0BL29785   0.796   4.393  10.601
   438G11  C0AF29786   0.559   4.330  10.486
   438G11  C0BH29787   0.760   4.026  10.418
   438G11  C0BG29788   0.744   3.899  10.361
   438G11  C0BD29789   0.515   3.949  10.304
   438G11  C0AG29790   0.446   4.292  10.427
   438G11  C0AI29791   0.203   4.308  10.446
   438G11  C0AV29792   0.001   4.155  10.527
   438G11  C0BB29793   0.156   3.943  10.268
   438G11  O00C29794  -0.073   3.915  10.541
   438G11  C0BC29795   0.124   3.813  10.244
   438G11  C0B929796   0.390   3.907  10.263
   438G11  O00E29797   0.465   3.568  10.145
   438G11  C0CA29798   0.570   3.487  10.116
   438G11  O00F29799   0.553   3.387  10.049
   438G11  C0BF29800   0.621   3.860  10.309
   438G11  C0C529801   0.695   3.522  10.180
   438G11  C0C429802   0.802   3.438  10.168
   438G11  H01129803   0.783   3.350  10.110
   438G11  C0C829804   0.848   3.805  10.365
   438G11  C0C229805   0.922   3.473  10.245
   438G11  C0C329806   1.033   3.389  10.246
   438G11  C0DY29807   1.048   3.261  10.187
   438G11  H01629808   0.990   3.208  10.113
   438G11  C0DX29809   1.171   3.210  10.238
   438G11  C0DW29810   1.191   3.070  10.233
   438G11  C0BY29811   1.066   3.741  10.444
   438G11  C0DB29812   1.144   3.408  10.322
   438G11  C0CC29813   1.293   3.678  10.514
   438G11  C0D729814   1.503   3.492  10.515
   438G11  C0DZ29815   1.248   3.310  10.317
   438G11  C0DM29816   1.664   3.275  10.489
   438G11  C0DQ29817   1.439   3.078  10.291
   438G11  C0DV29818   1.325   3.022  10.227
   438G11  C0E029819   1.106   2.965  10.178
   438G11  C0FO29820   1.192   2.620  10.174
   438G11  C0E329821   1.002   2.898  10.255
   438G11  H01729822   0.952   2.934  10.344
   438G11  C0GV29823   1.092   2.555  10.243
   438G11  C0ES29824   1.325   2.590  10.193
   438G11  C0GQ29825   1.272   2.258  10.338
   438G11  C0FJ29826   1.636   2.232  10.297
   438G11  C0ED29827   1.600   2.504  10.232
   438G11  C0ER29828   1.906   2.467  10.064
   438G11  C0EP29829   2.012   2.659  10.134
   438G11  C0E629830   1.657   2.758  10.236
   438G11  C0DE29831   1.795   2.994  10.369
   438G11  C0EA29832   2.131   2.865  10.238
   438G11  C0DF29833   1.887   3.046  10.461
   438G11  C08029834   2.243   3.116  10.434
   438G11  C0DO29835   1.903   3.177  10.514
   438G11  C0DJ29836   1.980   3.427  10.613
   438G11  C07K29837   2.335   3.328  10.579
   438G11  C07W29838   2.118   3.587  10.704
   438G11  C08329839   2.361   3.690  10.778
   438G11  C07J29840   2.466   3.385  10.599
   438G11  C06O29841   2.711   3.512  10.637
   438G11  C06M29842   2.606   3.681  10.770
   448G11  C07129843  10.367   6.175   5.862
   448G11  C07L29844  10.315   6.062   5.927
   448G11  C07M29845  10.395   5.945   5.937
   448G11  C07Y29846  10.347   5.825   5.995
   448G11  C08129847  10.217   5.824   6.057
   448G11  C08229848  10.168   5.702   6.114
   448G11  C0DI29849  10.029   5.669   6.153
   448G11  C0DH29850   9.900   5.736   6.171
   448G11  C0DG29851   9.794   5.641   6.186
   448G11  C0E929852   9.680   5.658   6.269
   448G11  C0E829853   9.672   5.527   6.339
   448G11  C0E729854   9.575   5.481   6.440
   448G11  C0EB29855   9.457   5.563   6.474
   448G11  C0EF29856   9.364   5.546   6.578
   448G11  C0EE29857   9.375   5.478   6.700
   448G11  C0FD29858   9.327   5.538   6.820
   448G11  C0FE29859   9.309   5.676   6.837
   448G11  H01B29860   9.333   5.746   6.757
   448G11  C0FF29861   9.271   5.730   6.961
   448G11  H01A29862   9.250   5.831   6.992
   448G11  C0FG29863   9.246   5.641   7.065
   448G11  H01829864   9.207   5.681   7.157
   448G11  C0FH29865   9.283   5.503   7.057
   448G11  C0FI29866   9.258   5.412   7.166
   448G11  H01929867   9.211   5.447   7.257
   448G11  O00K29868   9.277   5.279   7.153
   448G11  C0FL29869   9.316   5.233   7.031
   448G11  C0FK29870   9.330   5.314   6.915
   448G11  C0FM29871   9.372   5.257   6.798
   448G11  C0FN29872   9.386   5.118   6.786
   448G11  C0FP29873   9.364   5.039   6.899
   448G11  C0GO29874   9.396   4.905   6.901
   448G11  C0GN29875   9.408   4.826   7.013
   448G11  C0GR29876   9.380   4.888   7.136
   448G11  C0GS29877   9.388   4.818   7.259
   448G11  H01Q29878   9.356   4.876   7.344
   448G11  C0GT29879   9.424   4.678   7.257
   448G11  H01O29880   9.440   4.618   7.346
   448G11  C0GU29881   9.454   4.620   7.130
   448G11  H01P29882   9.488   4.518   7.121
   448G11  O00L29883   9.353   5.028   7.136
   448G11  C0GM29884   9.450   4.688   7.008
   448G11  C0GL29885   9.490   4.634   6.878
   448G11  H01R29886   9.538   4.537   6.877
   448G11  C0GK29887   9.470   4.717   6.764
   448G11  C0GP29888   9.506   4.712   6.626
   448G11  C0E229889   9.452   4.831   6.558
   448G11  C0E129890   9.550   4.862   6.451
   448G11  C0DU29891   9.608   4.985   6.427
   448G11  C0DT29892   9.566   5.110   6.471
   448G11  C0E429893   9.486   5.139   6.577
   448G11  C0E529894   9.479   5.277   6.583
   448G11  C0DS29895   9.629   5.225   6.429
   448G11  C0DR29896   9.755   5.208   6.373
   448G11  C0DD29897   9.839   5.308   6.329
   448G11  C0DC29898   9.965   5.237   6.292
   448G11  C0DP29899   9.956   5.095   6.309
   448G11  C0DA29900  10.061   4.990   6.280
   448G11  C0D929901  10.204   5.000   6.221
   448G11  C0CR29902  10.277   4.879   6.188
   448G11  C0C029903  10.223   4.752   6.218
   448G11  C0BZ29904  10.279   4.629   6.187
   448G11  C0C129905  10.211   4.510   6.206
   448G11  C0C729906  10.266   4.391   6.159
   448G11  C0C629907  10.200   4.268   6.176
   448G11  C0C929908  10.259   4.148   6.139
   448G11  C0B829909  10.190   4.025   6.163
   448G11  C0B729910  10.245   3.900   6.136
   448G11  C0B629911  10.198   3.764   6.141
   448G11  C0B529912  10.068   3.697   6.155
   448G11  H00Z29913   9.977   3.745   6.186
   448G11  C0B429914  10.094   3.552   6.116
   448G11  H01029915  10.030   3.471   6.086
   448G11  C0B329916  10.235   3.534   6.083
   448G11  C0AP29917  10.355   3.461   6.031
   448G11  C0AQ29918  10.459   3.559   6.044
   448G11  C0AR29919  10.577   3.561   5.972
   448G11  C0AS29920  10.639   3.679   5.963
   448G11  C0AT29921  10.578   3.797   6.005
   448G11  C0BA29922  10.461   3.796   6.067
   448G11  C0AU29923  10.632   3.918   5.970
   448G11  C0BE29924  10.570   4.036   6.004
   448G11  C0BI29925  10.640   4.156   5.976
   448G11  C0BJ29926  10.764   4.150   5.910
   448G11  C0BK29927  10.820   4.272   5.871
   448G11  C0BW29928  10.764   4.390   5.910
   448G11  C0BV29929  10.641   4.397   5.974
   448G11  C0BU29930  10.581   4.515   6.009
   448G11  C0BX29931  10.455   4.516   6.070
   448G11  C0BT29932  10.639   4.635   5.975
   448G11  C0CD29933  10.576   4.755   6.010
   448G11  C0CB29934  10.459   4.755   6.090
   448G11  C0CE29935  10.639   4.873   5.977
   448G11  C0CK29936  10.755   4.871   5.890
   448G11  C0BS29937  10.815   4.752   5.858
   448G11  C0CJ29938  10.923   4.746   5.770
   448G11  C0BP29939  10.978   4.628   5.735
   448G11  C0CI29940  11.078   4.616   5.634
   448G11  C0CH29941  11.157   4.499   5.633
   448G11  H01229942  11.241   4.504   5.566
   448G11  C0BN29943  11.112   4.378   5.680
   448G11  C0CG29944  11.180   4.261   5.657
   448G11  C0CF29945  11.305   4.256   5.588
   448G11  H01329946  11.361   4.348   5.574
   448G11  O00G29947  11.370   4.145   5.556
   448G11  C0AA29948  11.304   4.028   5.585
   448G11  C0A929949  11.372   3.908   5.562
   448G11  H00U29950  11.470   3.924   5.519
   448G11  C0A829951  11.317   3.788   5.590
   448G11  H00V29952  11.383   3.704   5.572
   448G11  C0A729953  11.185   3.769   5.635
   448G11  C0A629954  11.115   3.894   5.674
   448G11  C0A529955  10.991   3.906   5.743
   448G11  C0A429956  10.917   3.785   5.777
   448G11  C0A329957  10.916   3.641   5.759
   448G11  C0A229958  11.017   3.571   5.685
   448G11  C0A129959  11.014   3.428   5.664
   448G11  C0A029960  10.916   3.323   5.691
   448G11  C09Z29961  10.952   3.192   5.643
   448G11  C09Y29962  10.867   3.086   5.652
   448G11  H00Y29963  10.895   2.988   5.616
   448G11  C09X29964  10.741   3.104   5.707
   448G11  C09W29965  10.663   2.989   5.712
   448G11  H00R29966  10.704   2.897   5.673
   448G11  C0AX29967  10.536   2.992   5.757
   448G11  H00S29968  10.472   2.905   5.755
   448G11  C0AW29969  10.496   3.108   5.821
   448G11  H00T29970  10.392   3.106   5.850
   448G11  C0AN29971  10.571   3.227   5.825
   448G11  C0AO29972  10.526   3.341   5.902
   448G11  C0AM29973  10.702   3.225   5.764
   448G11  C0B229974  11.078   3.159   5.572
   448G11  O00D29975  11.102   3.048   5.525
   448G11  C0B129976  11.171   3.265   5.550
   448G11  H00W29977  11.269   3.239   5.511
   448G11  C0AL29978  10.789   3.336   5.756
   448G11  C0AK29979  10.736   3.446   5.825
   448G11  C0B029980  11.140   3.395   5.596
   448G11  C0AZ29981  11.211   3.518   5.579
   448G11  H00X29982  11.307   3.525   5.530
   448G11  C0AJ29983  10.804   3.577   5.821
   448G11  C0AH29984  10.806   3.806   5.861
   448G11  C0AE29985  10.938   4.026   5.791
   448G11  C0AD29986  10.997   4.146   5.761
   448G11  C0AY29987  11.133   3.633   5.634
   448G11  C0AB29988  11.177   4.020   5.653
   448G11  C0AC29989  11.122   4.142   5.696
   448G11  C0BM29990  10.992   4.385   5.756
   448G11  C0CM29991  11.100   4.721   5.547
   448G11  C09M29992  11.073   4.850   5.600
   448G11  C09829993  11.164   4.951   5.547
   448G11  C08R29994  11.157   5.094   5.551
   448G11  C08Q29995  11.258   5.164   5.478
   448G11  C08P29996  11.278   5.285   5.404
   448G11  C08Y29997  11.378   5.288   5.308
   448G11  C09729998  11.420   5.166   5.254
   448G11  C09629999  11.423   5.172   5.118
   448G11  C09030000  11.430   5.309   5.090
   448G11  C09530001  11.435   5.369   4.962
   448G11  C09430002  11.438   5.507   4.934
   448G11  C08J30003  11.418   5.622   5.017
   448G11  C08I30004  11.362   5.726   4.936
   448G11  C08H30005  11.283   5.811   5.022
   448G11  C08G30006  11.265   5.741   5.145
   448G11  C08F30007  11.199   5.758   5.271
   448G11  C08E30008  11.158   5.886   5.316
   448G11  C05930009  11.200   6.010   5.262
   448G11  C05830010  11.164   6.136   5.321
   448G11  C05730011  11.196   6.261   5.268
   448G11  C05630012  11.272   6.267   5.148
   448G11  C05530013  11.343   6.159   5.113
   448G11  C05430014  11.385   6.174   4.979
   448G11  C05330015  11.343   6.307   4.932
   448G11  C05230016  11.337   6.365   4.800
   448G11  C05130017  11.366   6.291   4.682
   448G11  C05U30018  11.395   6.142   4.674
   448G11  C05T30019  11.393   6.037   4.775
   448G11  C06K30020  11.468   5.933   4.705
   448G11  H00J30021  11.496   5.845   4.761
   448G11  C06L30022  11.475   5.955   4.564
   448G11  H00I30023  11.522   5.898   4.485
   448G11  C05V30024  11.439   6.090   4.553
   448G11  C06J30025  11.450   6.159   4.436
   448G11  H00K30026  11.475   6.117   4.340
   448G11  C05X30027  11.407   6.292   4.431
   448G11  C06I30028  11.401   6.368   4.308
   448G11  H00L30029  11.432   6.304   4.227
   448G11  C04Z30030  11.359   6.496   4.298
   448G11  C06H30031  11.364   6.569   4.172
   448G11  H00H30032  11.413   6.527   4.085
   448G11  C04Y30033  11.305   6.699   4.172
   448G11  C06G30034  11.300   6.764   4.043
   448G11  O00930035  11.349   6.726   3.937
   448G11  O00830036  11.240   6.890   4.035
   448G11  C04P30037  11.184   6.946   4.146
   448G11  C04J30038  11.105   7.068   4.148
   448G11  C04Q30039  11.081   7.154   4.040
   448G11  H00E30040  11.123   7.129   3.944
   448G11  C04M30041  11.007   7.276   4.056
   448G11  C04R30042  10.971   7.364   3.948
   448G11  H00F30043  10.990   7.349   3.842
   448G11  C04S30044  10.920   7.484   3.970
   448G11  H00G30045  10.907   7.545   3.881
   448G11  O00730046  10.887   7.533   4.095
   448G11  C03V30047  10.906   7.444   4.201
   448G11  C03U30048  10.841   7.474   4.321
   448G11  O00630049  10.783   7.600   4.328
   448G11  C03F30050  10.703   7.620   4.436
   448G11  C03E30051  10.698   7.536   4.549
   448G11  C03D30052  10.786   7.428   4.552
   448G11  C03C30053  10.785   7.341   4.661
   448G11  C03B30054  10.693   7.376   4.759
   448G11  C03A30055  10.692   7.290   4.870
   448G11  C03930056  10.783   7.181   4.885
   448G11  C03830057  10.742   7.127   5.017
   448G11  C03730058  10.647   7.218   5.057
   448G11  C03630059  10.599   7.202   5.183
   448G11  C02R30060  10.489   7.271   5.234
   448G11  C03530061  10.463   7.189   5.344
   448G11  C03R30062  10.553   7.088   5.369
   448G11  C03S30063  10.528   6.974   5.448
   448G11  C04930064  10.602   6.866   5.417
   448G11  C04830065  10.692   6.875   5.312
   448G11  C03P30066  10.702   6.981   5.216
   448G11  C04730067  10.772   6.761   5.299
   448G11  C04630068  10.887   6.748   5.220
   448G11  C04530069  10.937   6.825   5.111
   448G11  C03T30070  10.894   6.942   5.056
   448G11  C04430071  10.966   6.964   4.936
   448G11  C04330072  11.071   6.874   4.941
   448G11  C04230073  11.112   6.840   4.812
   448G11  C04130074  11.049   6.944   4.730
   448G11  C04030075  11.070   6.960   4.594
   448G11  C03Z30076  11.012   7.068   4.515
   448G11  C04H30077  11.060   7.042   4.386
   448G11  C04G30078  11.132   6.926   4.378
   448G11  C03N30079  10.940   7.192   4.539
   448G11  C03Y30080  10.922   7.268   4.421
   448G11  C03X30081  10.974   7.229   4.291
   448G11  C04F30082  11.146   6.874   4.505
   448G11  C04E30083  11.219   6.749   4.528
   448G11  C04O30084  11.265   6.687   4.408
   448G11  C04D30085  11.235   6.682   4.654
   448G11  C04V30086  11.273   6.549   4.651
   448G11  C04W30087  11.311   6.479   4.533
   448G11  C04C30088  11.207   6.725   4.779
   448G11  C04L30089  11.248   6.613   4.868
   448G11  C04U30090  11.211   6.599   5.008
   448G11  C05Q30091  11.230   6.484   5.081
   448G11  C05P30092  11.151   6.488   5.198
   448G11  C04T30093  11.070   6.602   5.191
   448G11  C04B30094  11.107   6.665   5.076
   448G11  C03M30095  10.960   7.031   4.810
   448G11  C04A30096  11.045   6.783   5.041
   448G11  C05H30097  10.951   6.632   5.260
   448G11  C05G30098  10.881   6.573   5.369
   448G11  C05F30099  10.924   6.460   5.439
   448G11  C05E30100  10.832   6.378   5.515
   448G11  C05L30101  10.701   6.399   5.583
   448G11  C05K30102  10.630   6.524   5.584
   448G11  C05J30103  10.658   6.638   5.499
   448G11  C06630104  10.507   6.526   5.655
   448G11  C06530105  10.461   6.410   5.721
   448G11  C06430106  10.537   6.288   5.727
   448G11  C06N30107  10.338   6.410   5.789
   448G11  C06930108  10.262   6.525   5.795
   448G11  C06P30109  10.136   6.526   5.851
   448G11  C06R30110  10.053   6.633   5.843
   448G11  C06B30111  10.089   6.747   5.774
   448G11  C06S30112  10.007   6.857   5.775
   448G11  C02G30113  10.045   6.971   5.707
   448G11  C02F30114   9.958   7.080   5.687
   448G11  C02730115   9.833   7.078   5.751
   448G11  C02630116   9.744   7.182   5.733
   448G11  C00E30117   9.614   7.180   5.785
   448G11  C00D30118   9.531   7.286   5.763
   448G11  C00C30119   9.404   7.272   5.809
   448G11  C00B30120   9.344   7.160   5.865
   448G11  C01530121   9.435   7.055   5.880
   448G11  C07F30122   9.384   6.934   5.923
   448G11  C07E30123   9.471   6.829   5.945
   448G11  C06W30124   9.607   6.839   5.914
   448G11  C06V30125   9.655   6.958   5.860
   448G11  C06X30126   9.696   6.736   5.929
   448G11  C07B30127   9.645   6.615   5.974
   448G11  C07C30128   9.510   6.600   6.004
   448G11  C0FU30129   9.464   6.478   6.052
   448G11  C0F730130   9.331   6.464   6.080
   448G11  C0F630131   9.282   6.343   6.123
   448G11  C0F830132   9.148   6.326   6.153
   448G11  C0F930133   9.101   6.203   6.204
   448G11  C0FA30134   8.968   6.193   6.240
   448G11  C0FZ30135   8.884   6.299   6.217
   448G11  C0G030136   8.748   6.278   6.236
   448G11  C0GD30137   8.691   6.162   6.288
   448G11  C0FC30138   8.781   6.062   6.325
   448G11  C0GH30139   8.732   5.948   6.390
   448G11  C0EY30140   8.825   5.852   6.431
   448G11  C0EX30141   8.785   5.740   6.508
   448G11  C0EW30142   8.874   5.651   6.557
   448G11  C0FR30143   8.830   5.534   6.630
   448G11  H01D30144   8.896   5.469   6.685
   448G11  C0FS30145   8.699   5.506   6.639
   448G11  H01C30146   8.674   5.411   6.684
   448G11  C0GJ30147   8.608   5.592   6.586
   448G11  H01N30148   8.503   5.569   6.596
   448G11  C0EV30149   9.006   5.668   6.528
   448G11  C0FT30150   9.106   5.594   6.593
   448G11  H01E30151   9.089   5.529   6.678
   448G11  C0EU30152   9.046   5.772   6.442
   448G11  C0ET30153   9.178   5.785   6.398
   448G11  C0EI30154   9.229   5.883   6.324
   448G11  C0F130155   9.140   5.984   6.291
   448G11  C0F030156   9.002   5.976   6.328
   448G11  C0EH30157   9.368   5.884   6.292
   448G11  C0EG30158   9.461   5.773   6.319
   448G11  C0EJ30159   9.409   5.996   6.222
   448G11  C0F330160   9.322   6.107   6.194
   448G11  C0EK30161   9.550   6.008   6.195
   448G11  C0EL30162   9.638   5.901   6.217
   448G11  C0EM30163   9.770   5.938   6.175
   448G11  C0EN30164   9.804   6.060   6.122
   448G11  C07I30165   9.935   6.060   6.063
   448G11  C07430166   9.984   6.181   6.013
   448G11  C07330167  10.119   6.185   5.978
   448G11  C07230168  10.171   6.295   5.920
   448G11  C07530169   9.898   6.292   6.004
   448G11  C07630170   9.765   6.285   6.046
   448G11  C07830171   9.683   6.390   6.041
   448G11  C07G30172   9.954   6.409   5.959
   448G11  C07030173   9.870   6.523   5.952
   448G11  C07Z30174  10.004   5.946   6.095
   448G11  C07730175   9.717   6.168   6.103
   448G11  C0EO30176   9.583   6.138   6.136
   448G11  C0F430177   9.502   6.249   6.124
   448G11  C0EQ30178   9.263   5.692   6.444
   448G11  C0FQ30179   8.648   5.716   6.525
   448G11  C0GI30180   8.563   5.812   6.478
   448G11  H01L30181   8.457   5.800   6.494
   448G11  C0EZ30182   8.960   5.865   6.397
   448G11  C0GG30183   8.597   5.930   6.411
   448G11  C0GF30184   8.511   6.030   6.365
   448G11  H01M30185   8.406   6.007   6.376
   448G11  C0GE30186   8.552   6.146   6.308
   448G11  H01K30187   8.487   6.230   6.287
   448G11  O00J30188   8.654   6.374   6.207
   448G11  C0GA30189   8.698   6.496   6.163
   448G11  C0G930190   8.610   6.595   6.126
   448G11  H01H30191   8.504   6.577   6.115
   448G11  C0G830192   8.646   6.720   6.078
   448G11  C0G730193   8.559   6.826   6.036
   448G11  H01I30194   8.452   6.820   6.048
   448G11  O00I30195   8.603   6.939   5.971
   448G11  C0G630196   8.742   6.959   5.958
   448G11  H01J30197   8.775   7.039   5.894
   448G11  C02D30198   8.835   6.868   6.015
   448G11  C02C30199   8.973   6.892   5.998
   448G11  C01730200   9.026   7.023   5.968
   448G11  C01630201   9.159   7.035   5.941
   448G11  O00130202   8.952   7.134   5.975
   448G11  C01830203   8.994   7.254   5.911
   448G11  C00930204   9.132   7.277   5.885
   448G11  C00830205   9.196   7.392   5.823
   448G11  C00730206   9.146   7.519   5.765
   448G11  C00630207   9.020   7.557   5.766
   448G11  C00530208   8.971   7.669   5.687
   448G11  C00430209   9.038   7.761   5.594
   448G11  C00330210   9.173   7.771   5.549
   448G11  C00230211   9.206   7.865   5.449
   448G11  C00P30212   9.334   7.867   5.393
   448G11  C00O30213   9.366   7.950   5.281
   448G11  C00N30214   9.490   7.940   5.211
   448G11  C01030215   9.515   8.019   5.099
   448G11  C01130216   9.639   8.020   5.034
   448G11  C01Q30217   9.658   8.100   4.919
   448G11  C01U30218   9.554   8.175   4.860
   448G11  C01230219   9.438   8.182   4.936
   448G11  H00030220   9.356   8.250   4.919
   448G11  C01V30221   9.583   8.255   4.751
   448G11  H00730222   9.505   8.312   4.702
   448G11  O00530223   9.705   8.250   4.688
   448G11  C01W30224   9.804   8.172   4.744
   448G11  C03130225   9.927   8.176   4.680
   448G11  C03230226  10.037   8.121   4.743
   448G11  H00A30227  10.131   8.130   4.691
   448G11  C03330228  10.021   8.036   4.853
   448G11  H00B30229  10.108   7.984   4.890
   448G11  C01O30230   9.885   8.008   4.898
   448G11  C01N30231   9.860   7.919   5.003
   448G11  C01M30232   9.962   7.819   5.058
   448G11  C01L30233  10.089   7.736   5.019
   448G11  C01K30234  10.116   7.659   5.130
   448G11  C01Y30235  10.211   7.552   5.141
   448G11  C02I30236  10.306   7.536   5.044
   448G11  C02N30237  10.411   7.445   5.072
   448G11  C02M30238  10.507   7.424   4.974
   448G11  C02L30239  10.508   7.505   4.858
   448G11  C02K30240  10.405   7.602   4.837
   448G11  C02U30241  10.407   7.674   4.719
   448G11  C02V30242  10.514   7.666   4.632
   448G11  C03H30243  10.533   7.760   4.525
   448G11  H00C30244  10.474   7.850   4.513
   448G11  C02W30245  10.296   7.748   4.685
   448G11  C02X30246  10.188   7.748   4.774
   448G11  C02Y30247  10.081   7.801   4.693
   448G11  H00830248   9.976   7.816   4.718
   448G11  C02Z30249  10.141   7.843   4.560
   448G11  O00430250  10.102   7.912   4.467
   448G11  O00330251  10.266   7.801   4.562
   448G11  C02J30252  10.298   7.617   4.927
   448G11  C01Z30253  10.200   7.486   5.262
   448G11  C02030254  10.090   7.496   5.348
   448G11  C01I30255   9.996   7.597   5.338
   448G11  C01H30256   9.874   7.602   5.400
   448G11  C00K30257   9.780   7.694   5.360
   448G11  C01S30258   9.804   7.773   5.249
   448G11  C01430259   9.710   7.857   5.194
   448G11  C00J30260   9.655   7.696   5.421
   448G11  C00I30261   9.632   7.606   5.522
   448G11  C00H30262   9.729   7.507   5.553
   448G11  C00G30263   9.693   7.395   5.628
   448G11  C00S30264   9.508   7.606   5.578
   448G11  C00T30265   9.486   7.502   5.666
   448G11  C00U30266   9.361   7.497   5.720
   448G11  C00R30267   9.406   7.694   5.543
   448G11  C00L30268   9.558   7.781   5.375
   448G11  C02830269   9.850   7.501   5.493
   448G11  C02330270   9.943   7.404   5.516
   448G11  C02430271   9.907   7.297   5.595
   448G11  C02130272  10.062   7.399   5.444
   448G11  C02230273  10.151   7.297   5.465
   448G11  C02H30274  10.120   7.197   5.558
   448G11  C03030275  10.207   7.086   5.570
   448G11  C03430276  10.325   7.084   5.505
   448G11  C02P30277  10.262   7.290   5.384
   448G11  C02B30278  10.287   7.383   5.278
   448G11  C01J30279  10.025   7.685   5.232
   448G11  C01X30280  10.182   7.708   4.906
   448G11  C01T30281   9.925   7.762   5.178
   448G11  H00930282   9.943   8.242   4.596
   448G11  C01P30283   9.784   8.094   4.858
   448G11  C01R30284   9.739   7.933   5.077
   448G11  C00Z30285   9.416   8.109   5.053
   448G11  O00030286   9.296   8.124   5.119
   448G11  C00M30287   9.584   7.857   5.260
   448G11  C00Y30288   9.274   8.047   5.233
   448G11  C01330289   9.154   8.061   5.309
   448G11  H00130290   9.078   8.133   5.282
   448G11  C00Q30291   9.430   7.779   5.440
   448G11  C00130292   9.114   7.961   5.403
   448G11  C00030293   8.989   7.964   5.468
   448G11  H00630294   8.921   8.047   5.455
   448G11  C00W30295   9.273   7.684   5.598
   448G11  C01G30296   8.950   7.870   5.560
   448G11  H00530297   8.854   7.886   5.605
   448G11  C01C30298   8.825   7.669   5.703
   448G11  H00230299   8.749   7.735   5.665
   448G11  C01B30300   8.794   7.552   5.779
   448G11  C01D30301   8.665   7.511   5.826
   448G11  H00330302   8.578   7.570   5.803
   448G11  C01E30303   8.656   7.400   5.896
   448G11  H00430304   8.555   7.376   5.926
   448G11  O00230305   8.768   7.317   5.925
   448G11  C01A30306   8.908   7.478   5.812
   448G11  C00V30307   9.248   7.577   5.690
   448G11  C01930308   8.890   7.352   5.882
   448G11  C02E30309   9.060   6.781   6.011
   448G11  C0FX30310   9.015   6.663   6.064
   448G11  C0FW30311   9.103   6.557   6.091
   448G11  C0GB30312   8.877   6.645   6.090
   448G11  C0G330313   9.198   6.799   5.990
   448G11  C07H30314   9.285   6.691   6.010
   448G11  C0GC30315   8.788   6.746   6.062
   448G11  C0G230316   8.835   6.521   6.138
   448G11  C0G130317   8.926   6.417   6.157
   448G11  C0FB30318   8.916   6.075   6.296
   448G11  C0F230319   9.188   6.100   6.228
   448G11  C0FY30320   9.059   6.434   6.130
   448G11  C0F530321   9.367   6.231   6.155
   448G11  C0FV30322   9.239   6.574   6.058
   448G11  C07930323   9.549   6.370   6.066
   448G11  C07A30324   9.730   6.509   5.989
   448G11  C06Y30325   9.833   6.743   5.891
   448G11  C07D30326   9.424   6.707   5.989
   448G11  C01F30327   9.248   6.923   5.953
   448G11  C00A30328   9.213   7.158   5.898
   448G11  C00X30329   9.328   7.385   5.793
   448G11  C00F30330   9.573   7.398   5.692
   448G11  C02930331   9.572   7.065   5.844
   448G11  C02530332   9.781   7.291   5.652
   448G11  C06U30333   9.787   6.963   5.814
   448G11  C02A30334   9.996   7.188   5.614
   448G11  C05Y30335  10.168   6.973   5.641
   448G11  C05Z30336  10.252   6.864   5.649
   448G11  C06030337  10.376   6.869   5.587
   448G11  C06230338  10.458   6.751   5.576
   448G11  C06T30339   9.876   6.856   5.825
   448G11  C06A30340  10.215   6.750   5.714
   448G11  C06Z30341   9.922   6.633   5.896
   448G11  C06Q30342  10.089   6.410   5.913
   448G11  C06830343  10.302   6.641   5.720
   448G11  C06730344  10.426   6.636   5.651
   448G11  C06330345  10.659   6.285   5.655
   448G11  C06C30346  10.729   6.161   5.654
   448G11  C06D30347  10.848   6.143   5.584
   448G11  C06E30348  10.912   6.025   5.562
   448G11  C07Q30349  10.858   5.913   5.621
   448G11  C07P30350  10.748   5.926   5.704
   448G11  C07T30351  10.700   5.814   5.772
   448G11  C07U30352  10.590   5.825   5.851
   448G11  C07V30353  10.544   5.710   5.916
   448G11  C08430354  10.601   5.587   5.892
   448G11  C08C30355  10.710   5.580   5.805
   448G11  C08B30356  10.772   5.459   5.788
   448G11  C08A30357  10.877   5.460   5.701
   448G11  C08930358  10.932   5.563   5.633
   448G11  C08830359  11.034   5.543   5.535
   448G11  C08730360  11.067   5.653   5.452
   448G11  C08630361  11.018   5.778   5.488
   448G11  C08X30362  11.094   5.422   5.512
   448G11  C08T30363  11.034   5.309   5.585
   448G11  C08D30364  10.871   5.682   5.655
   448G11  C08U30365  10.928   5.335   5.675
   448G11  C08V30366  10.882   5.221   5.737
   448G11  C0CY30367  10.781   5.222   5.830
   448G11  C0CX30368  10.737   5.103   5.878
   448G11  C0CW30369  10.629   5.106   5.963
   448G11  C0CV30370  10.567   5.228   5.993
   448G11  C0D430371  10.621   5.345   5.935
   448G11  C0CU30372  10.453   5.234   6.072
   448G11  C0CT30373  10.401   5.115   6.126
   448G11  C0CS30374  10.459   4.995   6.096
   448G11  C0D630375  10.404   5.359   6.102
   448G11  C0EC30376  10.451   5.476   6.044
   448G11  C07X30377  10.383   5.596   6.054
   448G11  C0DL30378  10.287   5.356   6.179
   448G11  C0DK30379  10.216   5.474   6.180
   448G11  C0DN30380  10.089   5.441   6.216
   448G11  C0D830381  10.211   5.242   6.212
   448G11  C08W30382  10.954   5.108   5.693
   448G11  C0CQ30383  10.909   4.982   5.749
   448G11  C09330384  10.728   5.345   5.855
   448G11  C09230385  10.556   5.469   5.952
   448G11  C08530386  10.763   5.692   5.744
   448G11  C07S30387  10.915   5.794   5.587
   448G11  C06F30388  11.011   6.014   5.466
   448G11  C07O30389  10.681   6.049   5.717
   448G11  C07N30390  10.565   6.058   5.801
   448G11  C05D30391  10.902   6.261   5.531
   448G11  C05C30392  11.018   6.252   5.462
   448G11  C05N30393  11.032   6.376   5.396
   448G11  C05M30394  10.766   6.651   5.397
   448G11  C05I30395  10.577   6.752   5.495
   448G11  C06130396  10.409   6.978   5.511
   448G11  C02Q30397  10.345   7.188   5.413
   448G11  C02O30398  10.393   7.366   5.190
   448G11  C03Q30399  10.626   7.087   5.259
   448G11  C03O30400  10.778   7.008   5.094
   448G11  C03L30401  10.876   7.144   4.783
   448G11  C02S30402  10.604   7.313   4.976
   448G11  C02T30403  10.602   7.483   4.756
   448G11  C03K30404  10.870   7.225   4.661
   448G11  C03I30405  10.604   7.563   4.646
   448G11  C03G30406  10.625   7.735   4.428
   448G11  H00D30407  10.628   7.810   4.350
   448G11  C03J30408  10.852   7.388   4.434
   448G11  C03W30409  10.964   7.314   4.186
   448G11  C04I30410  11.043   7.115   4.270
   448G11  C04K30411  11.193   6.880   4.267
   448G11  C04N30412  11.256   6.756   4.283
   448G11  C04X30413  11.312   6.556   4.412
   448G11  C05030414  11.359   6.351   4.549
   448G11  C05W30415  11.294   6.501   4.780
   448G11  C05S30416  11.367   6.046   4.920
   448G11  C05R30417  11.288   6.367   5.049
   448G11  C05O30418  11.125   6.384   5.292
   448G11  C05B30419  11.074   6.128   5.422
   448G11  C05A30420  11.288   6.030   5.145
   448G11  C07R30421  11.065   5.892   5.423
   448G11  C08N30422  11.168   5.641   5.348
   448G11  C08M30423  11.224   5.515   5.329
   448G11  C08L30424  11.318   5.507   5.227
   448G11  C09130425  11.313   5.953   5.024
   448G11  C09K30426  11.317   5.666   4.811
   448G11  H00M30427  11.257   5.718   4.738
   448G11  C08K30428  11.338   5.618   5.138
   448G11  C09J30429  11.384   5.535   4.804
   448G11  C09I30430  11.367   5.409   4.739
   448G11  C09L30431  11.335   5.370   4.608
   448G11  H00N30432  11.332   5.445   4.531
   448G11  C09Q30433  11.338   5.240   4.584
   448G11  H00O30434  11.330   5.209   4.481
   448G11  O00B30435  11.350   5.136   4.675
   448G11  C09G30436  11.388   5.172   4.799
   448G11  C09F30437  11.388   5.055   4.886
   448G11  O00A30438  11.363   4.940   4.821
   448G11  C09P30439  11.394   4.827   4.896
   448G11  H00P30440  11.430   4.744   4.837
   448G11  C09O30441  11.328   4.819   5.020
   448G11  C09D30442  11.363   4.933   5.105
   448G11  C09C30443  11.346   4.938   5.251
   448G11  C09N30444  11.277   4.863   5.344
   448G11  C09T30445  11.187   4.762   5.307
   448G11  C09S30446  11.193   4.686   5.186
   448G11  C0CP30447  11.121   4.565   5.220
   448G11  C0CN30448  11.070   4.560   5.349
   448G11  C0CO30449  11.003   4.443   5.386
   448G11  H01430450  10.947   4.442   5.479
   448G11  C0CZ30451  10.994   4.339   5.296
   448G11  H01530452  10.930   4.255   5.321
   448G11  C0D030453  11.048   4.346   5.160
   448G11  C0G530454  11.050   4.244   5.061
   448G11  H01F30455  11.001   4.153   5.094
   448G11  C0G430456  11.095   4.268   4.936
   448G11  H01G30457  11.091   4.187   4.866
   448G11  O00H30458  11.155   4.381   4.893
   448G11  C0D230459  11.169   4.478   4.989
   448G11  C09V30460  11.238   4.602   4.960
   448G11  H00Q30461  11.269   4.612   4.857
   448G11  C0D130462  11.113   4.468   5.119
   448G11  C09R30463  11.253   4.705   5.062
   448G11  C09H30464  11.398   5.305   4.834
   448G11  C09E30465  11.398   5.058   5.036
   448G11  C09B30466  11.392   5.049   5.320
   448G11  C08Z30467  11.373   5.379   5.205
   448G11  C08O30468  11.199   5.403   5.419
   448G11  C09A30469  11.348   5.055   5.448
   448G11  C08S30470  11.050   5.164   5.597
   448G11  C09930471  11.285   4.926   5.474
   448G11  C09U30472  11.121   4.683   5.408
   448G11  C0BO30473  10.933   4.510   5.793
   448G11  C0CL30474  10.970   4.862   5.707
   448G11  C0D330475  10.802   4.987   5.840
   448G11  C0D530476  10.575   4.993   6.015
   448G11  C0BR30477  10.758   4.631   5.905
   448G11  C0BQ30478  10.818   4.512   5.872
   448G11  C0BL30479  10.934   4.268   5.792
   448G11  C0AF30480  10.820   4.031   5.867
   448G11  C0BH30481  10.580   4.277   6.010
   448G11  C0BG30482  10.453   4.273   6.062
   448G11  C0BD30483  10.445   4.031   6.060
   448G11  C0AG30484  10.752   3.925   5.904
   448G11  C0AI30485  10.742   3.684   5.881
   448G11  C0AV30486  10.615   3.448   5.905
   448G11  C0BB30487  10.407   3.676   6.092
   448G11  O00C30488  10.391   3.351   5.952
   448G11  C0BC30489  10.281   3.660   6.130
   448G11  C0B930490  10.382   3.911   6.087
   448G11  O00E30491  10.058   4.026   6.205
   448G11  C0CA30492   9.999   4.135   6.249
   448G11  O00F30493   9.890   4.125   6.308
   448G11  C0BF30494  10.386   4.155   6.085
   448G11  C0C530495  10.073   4.261   6.234
   448G11  C0C430496  10.013   4.377   6.290
   448G11  H01130497   9.923   4.371   6.349
   448G11  C0C830498  10.391   4.390   6.099
   448G11  C0C230499  10.086   4.498   6.267
   448G11  C0C330500  10.043   4.624   6.304
   448G11  C0DY30501   9.916   4.640   6.351
   448G11  H01630502   9.831   4.578   6.374
   448G11  C0DX30503   9.900   4.782   6.365
   448G11  C0DW30504   9.777   4.835   6.409
   448G11  C0BY30505  10.394   4.636   6.114
   448G11  C0DB30506  10.104   4.747   6.282
   448G11  C0CC30507  10.402   4.877   6.130
   448G11  C0D730508  10.272   5.118   6.195
   448G11  C0DZ30509  10.021   4.856   6.316
   448G11  C0DM30510  10.086   5.303   6.251
   448G11  C0DQ30511   9.818   5.080   6.361
   448G11  C0DV30512   9.744   4.971   6.395
   448G11  C0E030513   9.654   4.771   6.461
   448G11  C0FO30514   9.411   4.914   6.657
   448G11  C0E330515   9.635   4.683   6.572
   448G11  H01730516   9.714   4.625   6.618
   448G11  C0GV30517   9.416   4.843   6.777
   448G11  C0ES30518   9.423   5.056   6.670
   448G11  C0GQ30519   9.344   5.098   7.027
   448G11  C0FJ30520   9.316   5.450   6.932
   448G11  C0ED30521   9.408   5.341   6.687
   448G11  C0ER30522   9.238   5.605   6.545
   448G11  C0EP30523   9.402   5.685   6.414
   448G11  C0E630524   9.560   5.342   6.480
   448G11  C0DE30525   9.787   5.443   6.295
   448G11  C0EA30526   9.588   5.775   6.265
   448G11  C0DF30527   9.854   5.517   6.193
   448G11  C08030528   9.899   5.871   6.152
   448G11  C0DO30529   9.996   5.537   6.192
   448G11  C0DJ30530  10.263   5.598   6.127
   448G11  C07K30531  10.142   5.941   6.046
   448G11  C07W30532  10.426   5.710   5.988
   448G11  C08330533  10.515   5.944   5.865
   448G11  C07J30534  10.190   6.062   5.986
   448G11  C06O30535  10.295   6.295   5.854
   448G11  C06M30536  10.490   6.173   5.796
   458G11  C07130537  10.501   9.780   9.669
   458G11  C07L30538  10.387   9.862   9.700
   458G11  C07M30539  10.258   9.814   9.672
   458G11  C07Y30540  10.148   9.892   9.705
   458G11  C08130541  10.160  10.024   9.756
   458G11  C08230542  10.040  10.097   9.785
   458G11  C0DI30543  10.022  10.236   9.832
   458G11  C0DH30544  10.113  10.333   9.879
   458G11  C0DG30545  10.043  10.459   9.894
   458G11  C0E930546  10.056  10.555   9.998
   458G11  C0E830547   9.917  10.607  10.020
   458G11  C0E730548   9.872  10.733  10.078
   458G11  C0EB30549   9.970  10.833  10.106
   458G11  C0EF30550   9.943  10.972  10.132
   458G11  C0EE30551   9.834  11.056  10.113
   458G11  C0FD30552   9.860  11.182  10.063
   458G11  C0FE30553   9.986  11.227  10.010
   458G11  H01B30554  10.079  11.176  10.031
   458G11  C0FF30555   9.995  11.344   9.930
   458G11  H01A30556  10.083  11.374   9.875
   458G11  C0FG30557   9.881  11.421   9.915
   458G11  H01830558   9.889  11.504   9.846
   458G11  C0FH30559   9.764  11.394   9.988
   458G11  C0FI30560   9.643  11.472   9.978
   458G11  H01930561   9.646  11.548   9.901
   458G11  O00K30562   9.532  11.450  10.053
   458G11  C0FL30563   9.519  11.324  10.104
   458G11  C0FK30564   9.628  11.234  10.109
   458G11  C0FM30565   9.609  11.103  10.165
   458G11  C0FN30566   9.484  11.075  10.227
   458G11  C0FP30567   9.385  11.178  10.233
   458G11  C0GO30568   9.260  11.149  10.276
   458G11  C0GN30569   9.149  11.232  10.255
   458G11  C0GR30570   9.172  11.364  10.211
   458G11  C0GS30571   9.069  11.455  10.203
   458G11  H01Q30572   9.107  11.555  10.187
   458G11  C0GT30573   8.932  11.411  10.233
   458G11  H01O30574   8.843  11.471  10.221
   458G11  C0GU30575   8.917  11.275  10.258
   458G11  H01P30576   8.815  11.243  10.274
   458G11  O00L30577   9.298  11.395  10.168
   458G11  C0GM30578   9.019  11.182  10.269
   458G11  C0GL30579   9.005  11.043  10.292
   458G11  H01R30580   8.909  10.994  10.286
   458G11  C0GK30581   9.111  10.961  10.320
   458G11  C0GP30582   9.126  10.822  10.342
   458G11  C0E230583   9.267  10.803  10.377
   458G11  C0E130584   9.301  10.672  10.334
   458G11  C0DU30585   9.414  10.637  10.258
   458G11  C0DT30586   9.527  10.713  10.225
   458G11  C0E430587   9.541  10.845  10.223
   458G11  C0E530588   9.658  10.878  10.151
   458G11  C0DS30589   9.622  10.660  10.139
   458G11  C0DR30590   9.591  10.537  10.076
   458G11  C0DD30591   9.676  10.468   9.988
   458G11  C0DC30592   9.593  10.351   9.947
   458G11  C0DP30593   9.458  10.357   9.995
   458G11  C0DA30594   9.339  10.274   9.967
   458G11  C0D930595   9.329  10.139   9.894
   458G11  C0CR30596   9.203  10.071   9.871
   458G11  C0C030597   9.088  10.138   9.890
   458G11  C0BZ30598   8.962  10.096   9.868
   458G11  C0C130599   8.846  10.170   9.908
   458G11  C0C730600   8.720  10.115   9.888
   458G11  C0C630601   8.602  10.185   9.922
   458G11  C0C930602   8.474  10.136   9.897
   458G11  C0B830603   8.360  10.209   9.934
   458G11  C0B730604   8.229  10.164   9.908
   458G11  C0B630605   8.095  10.220   9.931
   458G11  C0B530606   8.060  10.271  10.058
   458G11  H00Z30607   8.127  10.301  10.138
   458G11  C0B430608   7.918  10.243  10.074
   458G11  H01030609   7.854  10.258  10.160
   458G11  C0B330610   7.876  10.156   9.967
   458G11  C0AP30611   7.792  10.042   9.923
   458G11  C0AQ30612   7.867   9.986   9.821
   458G11  C0AR30613   7.860   9.846   9.801
   458G11  C0AS30614   7.976   9.797   9.747
   458G11  C0AT30615   8.095   9.857   9.735
   458G11  C0BA30616   8.108   9.984   9.787
   458G11  C0AU30617   8.205   9.784   9.714
   458G11  C0BE30618   8.328   9.838   9.747
   458G11  C0BI30619   8.443   9.764   9.718
   458G11  C0BJ30620   8.428   9.627   9.672
   458G11  C0BK30621   8.543   9.549   9.644
   458G11  C0BW30622   8.667   9.610   9.662
   458G11  C0BV30623   8.679   9.736   9.718
   458G11  C0BU30624   8.806   9.790   9.733
   458G11  C0BX30625   8.818   9.916   9.795
   458G11  C0BT30626   8.918   9.719   9.695
   458G11  C0CD30627   9.047   9.772   9.717
   458G11  C0CB30628   9.063   9.903   9.772
   458G11  C0CE30629   9.159   9.699   9.678
   458G11  C0CK30630   9.149   9.576   9.614
   458G11  C0BS30631   9.020   9.525   9.592
   458G11  C0CJ30632   9.006   9.402   9.524
   458G11  C0BP30633   8.879   9.346   9.511
   458G11  C0CI30634   8.856   9.224   9.441
   458G11  C0CH30635   8.732   9.163   9.450
   458G11  H01230636   8.721   9.062   9.415
   458G11  C0BN30637   8.618   9.227   9.507
   458G11  C0CG30638   8.494   9.162   9.507
   458G11  C0CF30639   8.472   9.025   9.457
   458G11  H01330640   8.550   8.953   9.435
   458G11  O00G30641   8.344   8.972   9.450
   458G11  C0AA30642   8.245   9.041   9.512
   458G11  C0A930643   8.126   8.970   9.527
   458G11  H00U30644   8.120   8.866   9.499
   458G11  C0A830645   8.021   9.026   9.596
   458G11  H00V30646   7.939   8.957   9.610
   458G11  C0A730647   8.024   9.163   9.644
   458G11  C0A630648   8.139   9.241   9.611
   458G11  C0A530649   8.153   9.378   9.627
   458G11  C0A430650   8.041   9.459   9.655
   458G11  C0A330651   7.901   9.453   9.693
   458G11  C0A230652   7.849   9.332   9.747
   458G11  C0A130653   7.718   9.325   9.796
   458G11  C0A030654   7.608   9.424   9.838
   458G11  C09Z30655   7.489   9.364   9.878
   458G11  C09Y30656   7.381   9.439   9.936
   458G11  H00Y30657   7.284   9.396   9.959
   458G11  C09X30658   7.410   9.574   9.961
   458G11  C09W30659   7.302   9.647  10.018
   458G11  H00R30660   7.207   9.598  10.037
   458G11  C0AX30661   7.315   9.778  10.048
   458G11  H00S30662   7.235   9.831  10.098
   458G11  C0AW30663   7.439   9.841  10.030
   458G11  H00T30664   7.446   9.943  10.065
   458G11  C0AN30665   7.540   9.775   9.958
   458G11  C0AO30666   7.661   9.837   9.928
   458G11  C0AM30667   7.528   9.638   9.925
   458G11  C0B230668   7.458   9.221   9.872
   458G11  O00D30669   7.350   9.171   9.906
   458G11  C0B130670   7.562   9.129   9.827
   458G11  H00W30671   7.547   9.026   9.856
   458G11  C0AL30672   7.629   9.564   9.859
   458G11  C0AK30673   7.742   9.634   9.817
   458G11  C0B030674   7.685   9.184   9.789
   458G11  C0AZ30675   7.799   9.105   9.756
   458G11  H00X30676   7.802   8.997   9.755
   458G11  C0AJ30677   7.851   9.577   9.739
   458G11  C0AH30678   8.071   9.597   9.662
   458G11  C0AE30679   8.283   9.437   9.619
   458G11  C0AD30680   8.399   9.362   9.596
   458G11  C0AY30681   7.903   9.199   9.716
   458G11  C0AB30682   8.253   9.173   9.564
   458G11  C0AC30683   8.384   9.232   9.558
   458G11  C0BM30684   8.644   9.351   9.563
   458G11  C0CM30685   8.967   9.172   9.372
   458G11  C09M30686   9.096   9.201   9.417
   458G11  C09830687   9.187   9.091   9.422
   458G11  C08R30688   9.331   9.083   9.449
   458G11  C08Q30689   9.386   8.957   9.436
   458G11  C08P30690   9.513   8.893   9.411
   458G11  C08Y30691   9.507   8.763   9.357
   458G11  C09730692   9.395   8.720   9.296
   458G11  C09630693   9.418   8.656   9.176
   458G11  C09030694   9.547   8.608   9.188
   458G11  C09530695   9.621   8.542   9.094
   458G11  C09430696   9.758   8.497   9.115
   458G11  C08J30697   9.851   8.528   9.218
   458G11  C08I30698   9.970   8.505   9.159
   458G11  C08H30699  10.066   8.596   9.228
   458G11  C08G30700   9.982   8.709   9.275
   458G11  C08F30701  10.006   8.847   9.324
   458G11  C08E30702  10.136   8.901   9.329
   458G11  C05930703  10.264   8.836   9.293
   458G11  C05830704  10.388   8.904   9.285
   458G11  C05730705  10.516   8.853   9.266
   458G11  C05630706  10.515   8.712   9.241
   458G11  C05530707  10.404   8.643   9.201
   458G11  C05430708  10.428   8.501   9.213
   458G11  C05330709  10.567   8.487   9.274
   458G11  C05230710  10.629   8.369   9.334
   458G11  C05130711  10.561   8.249   9.352
   458G11  C05U30712  10.420   8.223   9.318
   458G11  C05T30713  10.305   8.310   9.294
   458G11  C06K30714  10.204   8.217   9.251
   458G11  H00J30715  10.106   8.254   9.228
   458G11  C06L30716  10.244   8.078   9.268
   458G11  H00I30717  10.179   7.992   9.262
   458G11  C05V30718  10.380   8.087   9.310
   458G11  C06J30719  10.460   7.974   9.342
   458G11  H00K30720  10.425   7.872   9.339
   458G11  C05X30721  10.586   7.997   9.397
   458G11  C06I30722  10.672   7.890   9.435
   458G11  H00L30723  10.648   7.786   9.423
   458G11  C04Z30724  10.795   7.919   9.501
   458G11  C06H30725  10.872   7.811   9.553
   458G11  H00H30726  10.827   7.713   9.558
   458G11  C04Y30727  10.993   7.837   9.619
   458G11  C06G30728  11.066   7.726   9.690
   458G11  O00930729  11.021   7.617   9.713
   458G11  O00830730  11.186   7.760   9.746
   458G11  C04P30731  11.249   7.881   9.735
   458G11  C04J30732  11.371   7.920   9.795
   458G11  C04Q30733  11.464   7.839   9.864
   458G11  H00E30734  11.442   7.734   9.877
   458G11  C04M30735  11.587   7.881   9.924
   458G11  C04R30736  11.676   7.794  10.000
   458G11  H00F30737  11.651   7.690  10.016
   458G11  C04S30738  11.778   7.854  10.068
   458G11  H00G30739  11.834   7.786  10.130
   458G11  O00730740  11.816   7.984  10.056
   458G11  C03V30741  11.727   8.066   9.981
   458G11  C03U30742  11.757   8.204   9.979
   458G11  O00630743  11.862   8.249  10.050
   458G11  C03F30744  11.901   8.378  10.042
   458G11  C03E30745  11.830   8.468   9.963
   458G11  C03D30746  11.710   8.428   9.901
   458G11  C03C30747  11.633   8.521   9.834
   458G11  C03B30748  11.686   8.655   9.837
   458G11  C03A30749  11.607   8.753   9.773
   458G11  C03930750  11.488   8.721   9.695
   458G11  C03830751  11.443   8.852   9.657
   458G11  C03730752  11.543   8.939   9.696
   458G11  C03630753  11.524   9.077   9.684
   458G11  C02R30754  11.601   9.179   9.736
   458G11  C03530755  11.521   9.290   9.704
   458G11  C03R30756  11.410   9.261   9.633
   458G11  C03S30757  11.295   9.336   9.641
   458G11  C04930758  11.183   9.275   9.614
   458G11  C04830759  11.187   9.132   9.592
   458G11  C03P30760  11.297   9.046   9.608
   458G11  C04730761  11.062   9.085   9.539
   458G11  C04630762  11.036   8.959   9.494
   458G11  C04530763  11.109   8.841   9.495
   458G11  C03T30764  11.232   8.813   9.545
   458G11  C04430765  11.248   8.675   9.533
   458G11  C04330766  11.147   8.621   9.447
   458G11  C04230767  11.110   8.495   9.498
   458G11  C04130768  11.221   8.460   9.592
   458G11  C04030769  11.243   8.334   9.646
   458G11  C03Z30770  11.358   8.285   9.712
   458G11  C04H30771  11.341   8.147   9.720
   458G11  C04G30772  11.213   8.112   9.672
   458G11  C03N30773  11.480   8.341   9.773
   458G11  C03Y30774  11.563   8.247   9.841
   458G11  C03X30775  11.537   8.108   9.841
   458G11  C04F30776  11.155   8.223   9.622
   458G11  C04E30777  11.023   8.206   9.569
   458G11  C04O30778  10.969   8.073   9.567
   458G11  C04D30779  10.950   8.300   9.496
   458G11  C04V30780  10.820   8.279   9.452
   458G11  C04W30781  10.762   8.148   9.456
   458G11  C04C30782  10.987   8.429   9.456
   458G11  C04L30783  10.869   8.482   9.383
   458G11  C04U30784  10.862   8.614   9.331
   458G11  C05Q30785  10.740   8.677   9.293
   458G11  C05P30786  10.746   8.818   9.306
   458G11  C04T30787  10.867   8.849   9.369
   458G11  C04B30788  10.936   8.727   9.380
   458G11  C03M30789  11.315   8.570   9.611
   458G11  C04A30790  11.059   8.726   9.434
   458G11  C05H30791  10.914   8.965   9.426
   458G11  C05G30792  10.858   9.095   9.440
   458G11  C05F30793  10.730   9.129   9.397
   458G11  C05E30794  10.660   9.241   9.452
   458G11  C05L30795  10.688   9.360   9.534
   458G11  C05K30796  10.820   9.396   9.574
   458G11  C05J30797  10.938   9.313   9.568
   458G11  C06630798  10.832   9.528   9.627
   458G11  C06530799  10.720   9.611   9.647
   458G11  C06430800  10.592   9.567   9.606
   458G11  C06N30801  10.741   9.738   9.690
   458G11  C06930802  10.868   9.782   9.727
   458G11  C06P30803  10.878   9.912   9.778
   458G11  C06R30804  11.002   9.960   9.823
   458G11  C06B30805  11.111   9.877   9.808
   458G11  C06S30806  11.232   9.918   9.863
   458G11  C02G30807  11.343   9.836   9.855
   458G11  C02F30808  11.466   9.863   9.916
   458G11  C02730809  11.473   9.982   9.991
   458G11  C02630810  11.589  10.014  10.064
   458G11  C00E30811  11.593  10.121  10.150
   458G11  C00D30812  11.705  10.146  10.228
   458G11  C00C30813  11.700  10.249  10.313
   458G11  C00B30814  11.589  10.319  10.344
   458G11  C01530815  11.476  10.299  10.265
   458G11  C07F30816  11.362  10.371  10.291
   458G11  C07E30817  11.252  10.357  10.207
   458G11  C06W30818  11.254  10.259  10.109
   458G11  C06V30819  11.365  10.181  10.085
   458G11  C06X30820  11.136  10.233  10.036
   458G11  C07B30821  11.023  10.304  10.064
   458G11  C07C30822  11.019  10.399  10.161
   458G11  C0FU30823  10.903  10.471  10.185
   458G11  C0F730824  10.903  10.567  10.287
   458G11  C0F630825  10.784  10.634  10.316
   458G11  C0F830826  10.780  10.722  10.424
   458G11  C0F930827  10.661  10.793  10.452
   458G11  C0FA30828  10.654  10.871  10.566
   458G11  C0FZ30829  10.760  10.882  10.653
   458G11  C0G030830  10.743  10.947  10.775
   458G11  C0GD30831  10.622  11.014  10.811
   458G11  C0FC30832  10.516  11.006  10.720
   458G11  C0GH30833  10.396  11.073  10.747
   458G11  C0EY30834  10.296  11.083  10.646
   458G11  C0EX30835  10.177  11.159  10.662
   458G11  C0EW30836  10.083  11.169  10.559
   458G11  C0FR30837   9.963  11.244  10.577
   458G11  H01D30838   9.890  11.262  10.500
   458G11  C0FS30839   9.931  11.298  10.700
   458G11  H01C30840   9.840  11.353  10.715
   458G11  C0GJ30841  10.028  11.282  10.800
   458G11  H01N30842  10.003  11.333  10.892
   458G11  C0EV30843  10.113  11.110  10.434
   458G11  C0FT30844  10.027  11.127  10.321
   458G11  H01E30845   9.955  11.206  10.307
   458G11  C0EU30846  10.220  11.014  10.435
   458G11  C0ET30847  10.236  10.931  10.328
   458G11  C0EI30848  10.332  10.838  10.309
   458G11  C0F130849  10.434  10.842  10.399
   458G11  C0F030850  10.428  10.923  10.515
   458G11  C0EH30851  10.313  10.736  10.214
   458G11  C0EG30852  10.195  10.711  10.142
   458G11  C0EJ30853  10.429  10.661  10.188
   458G11  C0F330854  10.550  10.683  10.264
   458G11  C0EK30855  10.430  10.568  10.085
   458G11  C0EL30856  10.304  10.525  10.027
   458G11  C0EM30857  10.330  10.411   9.942
   458G11  C0EN30858  10.460  10.365   9.906
   458G11  C07I30859  10.447  10.253   9.829
   458G11  C07430860  10.554  10.161   9.820
   458G11  C07330861  10.531  10.037   9.773
   458G11  C07230862  10.642   9.952   9.761
   458G11  C07530863  10.672  10.205   9.866
   458G11  C07630864  10.679  10.326   9.942
   458G11  C07830865  10.798  10.353  10.010
   458G11  C07G30866  10.781  10.119   9.857
   458G11  C07030867  10.904  10.162   9.905
   458G11  C07Z30868  10.318  10.204   9.824
   458G11  C07730869  10.571  10.400   9.972
   458G11  C0EO30870  10.558  10.503  10.063
   458G11  C0F430871  10.678  10.528  10.135
   458G11  C0EQ30872  10.136  10.926  10.236
   458G11  C0FQ30873  10.152  11.217  10.791
   458G11  C0GI30874  10.244  11.190  10.892
   458G11  H01L30875  10.220  11.242  10.984
   458G11  C0EZ30876  10.317  11.005  10.532
   458G11  C0GG30877  10.372  11.132  10.872
   458G11  C0GF30878  10.469  11.119  10.967
   458G11  H01M30879  10.443  11.133  11.072
   458G11  C0GE30880  10.597  11.077  10.934
   458G11  H01K30881  10.659  11.050  11.019
   458G11  O00J30882  10.850  10.957  10.863
   458G11  C0GA30883  10.971  10.895  10.834
   458G11  C0G930884  11.076  10.903  10.927
   458G11  H01H30885  11.058  10.960  11.016
   458G11  C0G830886  11.200  10.834  10.898
   458G11  C0G730887  11.303  10.822  10.987
   458G11  H01I30888  11.294  10.885  11.074
   458G11  O00I30889  11.415  10.739  10.970
   458G11  C0G630890  11.421  10.670  10.859
   458G11  H01J30891  11.480  10.580  10.855
   458G11  C02D30892  11.323  10.688  10.753
   458G11  C02C30893  11.338  10.619  10.628
   458G11  C01730894  11.461  10.554  10.589
   458G11  C01630895  11.469  10.475  10.472
   458G11  O00130896  11.574  10.583  10.653
   458G11  C01830897  11.682  10.501  10.654
   458G11  C00930898  11.699  10.427  10.535
   458G11  C00830899  11.820  10.351  10.500
   458G11  C00730900  11.945  10.312  10.564
   458G11  C00630901  11.981  10.356  10.697
   458G11  C00530902  12.100  10.316  10.770
   458G11  C00430903  12.198  10.216  10.734
   458G11  C00330904  12.202  10.119  10.628
   458G11  C00230905  12.299  10.015  10.643
   458G11  C00P30906  12.301   9.904  10.552
   458G11  C00O30907  12.391   9.795  10.571
   458G11  C00N30908  12.373   9.673  10.505
   458G11  C01030909  12.447   9.562  10.543
   458G11  C01130910  12.421   9.435  10.485
   458G11  C01Q30911  12.489   9.326  10.534
   458G11  C01U30912  12.592   9.338  10.625
   458G11  C01230913  12.627   9.472  10.668
   458G11  H00030914  12.715   9.491  10.726
   458G11  C01V30915  12.652   9.213  10.671
   458G11  H00730916  12.729   9.215  10.746
   458G11  O00530917  12.615   9.089  10.615
   458G11  C01W30918  12.499   9.086  10.539
   458G11  C03130919  12.442   8.961  10.519
   458G11  C03230920  12.321   8.949  10.459
   458G11  H00A30921  12.280   8.849  10.451
   458G11  C03330922  12.264   9.064  10.403
   458G11  H00B30923  12.171   9.041  10.352
   458G11  C01O30924  12.330   9.192  10.404
   458G11  C01N30925  12.282   9.300  10.337
   458G11  C01M30926  12.201   9.294  10.208
   458G11  C01L30927  12.120   9.199  10.117
   458G11  C01K30928  12.035   9.284  10.043
   458G11  C01Y30929  11.928   9.250   9.967
   458G11  C02I30930  11.902   9.113   9.945
   458G11  C02N30931  11.788   9.082   9.864
   458G11  C02M30932  11.758   8.941   9.847
   458G11  C02L30933  11.837   8.843   9.910
   458G11  C02K30934  11.956   8.879   9.980
   458G11  C02U30935  12.029   8.779  10.039
   458G11  C02V30936  11.988   8.645  10.035
   458G11  C03H30937  12.049   8.549  10.121
   458G11  H00C30938  12.132   8.567  10.187
   458G11  C02W30939  12.154   8.809  10.090
   458G11  C02X30940  12.180   8.941  10.117
   458G11  C02Y30941  12.312   8.937  10.158
   458G11  H00830942  12.381   9.019  10.175
   458G11  C02Z30943  12.355   8.796  10.182
   458G11  O00430944  12.449   8.745  10.249
   458G11  O00330945  12.260   8.730  10.123
   458G11  C02J30946  11.990   9.020  10.003
   458G11  C01Z30947  11.847   9.356   9.925
   458G11  C02030948  11.875   9.488   9.968
   458G11  C01I30949  11.988   9.519  10.035
   458G11  C01H30950  12.005   9.640  10.097
   458G11  C00K30951  12.107   9.654  10.189
   458G11  C01S30952  12.190   9.549  10.224
   458G11  C01430953  12.274   9.548  10.330
   458G11  C00J30954  12.116   9.769  10.263
   458G11  C00I30955  12.030   9.871  10.240
   458G11  C00H30956  11.920   9.855  10.151
   458G11  C00G30957  11.813   9.953  10.141
   458G11  C00S30958  12.031   9.987  10.315
   458G11  C00T30959  11.932  10.079  10.296
   458G11  C00U30960  11.921  10.188  10.385
   458G11  C00R30961  12.120   9.999  10.423
   458G11  C00L30962  12.204   9.778  10.371
   458G11  C02830963  11.911   9.737  10.080
   458G11  C02330964  11.795   9.708  10.005
   458G11  C02430965  11.692   9.809   9.984
   458G11  C02130966  11.781   9.583   9.950
   458G11  C02230967  11.669   9.557   9.871
   458G11  C02H30968  11.570   9.656   9.853
   458G11  C03030969  11.448   9.627   9.791
   458G11  C03430970  11.434   9.503   9.737
   458G11  C02P30971  11.647   9.435   9.831
   458G11  C02B30972  11.734   9.327   9.854
   458G11  C01J30973  12.068   9.413  10.070
   458G11  C01X30974  12.097   9.057  10.089
   458G11  C01T30975  12.163   9.422  10.165
   458G11  H00930976  12.499   8.877  10.555
   458G11  C01P30977  12.438   9.205  10.489
   458G11  C01R30978  12.328   9.424  10.379
   458G11  C00Z30979  12.554   9.583  10.632
   458G11  O00030980  12.581   9.708  10.689
   458G11  C00M30981  12.283   9.668  10.402
   458G11  C00Y30982  12.488   9.804  10.672
   458G11  C01330983  12.497   9.918  10.744
   458G11  H00130984  12.578   9.919  10.815
   458G11  C00Q30985  12.207   9.897  10.445
   458G11  C00130986  12.405  10.024  10.741
   458G11  C00030987  12.406  10.134  10.826
   458G11  H00630988  12.488  10.154  10.894
   458G11  C00W30989  12.114  10.110  10.516
   458G11  C01G30990  12.304  10.228  10.826
   458G11  H00530991  12.328  10.313  10.888
   458G11  C01C30992  12.096  10.392  10.897
   458G11  H00230993  12.162  10.383  10.981
   458G11  C01B30994  11.986  10.482  10.886
   458G11  C01D30995  11.936  10.563  10.992
   458G11  H00330996  11.994  10.582  11.081
   458G11  C01E30997  11.825  10.626  10.970
   458G11  H00430998  11.796  10.702  11.041
   458G11  O00230999  11.746  10.609  10.858
   458G11  C01A31000  11.906  10.455  10.772
   458G11  C00V31001  12.005  10.204  10.496
   458G11  C01931002  11.778  10.517  10.756
   458G11  C02E31003  11.230  10.607  10.537
   458G11  C0FX31004  11.114  10.684  10.561
   458G11  C0FW31005  11.004  10.670  10.483
   458G11  C0GB31006  11.105  10.760  10.679
   458G11  C0G331007  11.238  10.525  10.428
   458G11  C07H31008  11.126  10.516  10.343
   458G11  C0GC31009  11.208  10.767  10.775
   458G11  C0G231010  10.983  10.818  10.715
   458G11  C0G131011  10.877  10.813  10.627
   458G11  C0FB31012  10.533  10.932  10.601
   458G11  C0F231013  10.549  10.771  10.372
   458G11  C0FY31014  10.887  10.737  10.510
   458G11  C0F531015  10.670  10.616  10.239
   458G11  C0FV31016  11.012  10.584  10.371
   458G11  C07931017  10.796  10.457  10.104
   458G11  C07A31018  10.908  10.276   9.985
   458G11  C06Y31019  11.129  10.115   9.961
   458G11  C07D31020  11.132  10.422  10.238
   458G11  C01F31021  11.357  10.458  10.396
   458G11  C00A31022  11.589  10.409  10.449
   458G11  C00X31023  11.813  10.275  10.384
   458G11  C00F31024  11.819  10.063  10.218
   458G11  C02931025  11.478  10.200  10.165
   458G11  C02531026  11.701   9.926  10.056
   458G11  C06U31027  11.359  10.069  10.001
   458G11  C02A31028  11.576   9.780   9.914
   458G11  C05Y31029  11.338   9.713   9.791
   458G11  C05Z31030  11.214   9.675   9.740
   458G11  C06031031  11.201   9.546   9.688
   458G11  C06231032  11.076   9.495   9.650
   458G11  C06T31033  11.238  10.036   9.943
   458G11  C06A31034  11.102   9.755   9.744
   458G11  C06Z31035  11.015  10.081   9.887
   458G11  C06Q31036  10.768   9.996   9.796
   458G11  C06831037  10.975   9.704   9.707
   458G11  C06731038  10.961   9.574   9.658
   458G11  C06331039  10.578   9.442   9.553
   458G11  C06C31040  10.442   9.402   9.521
   458G11  C06D31041  10.416   9.285   9.460
   458G11  C06E31042  10.295   9.225   9.442
   458G11  C07Q31043  10.183   9.297   9.474
   458G11  C07P31044  10.204   9.428   9.519
   458G11  C07T31045  10.097   9.505   9.549
   458G11  C07U31046  10.112   9.633   9.598
   458G11  C07V31047  10.003   9.710   9.626
   458G11  C08431048   9.880   9.654   9.615
   458G11  C08C31049   9.861   9.531   9.563
   458G11  C08B31050   9.732   9.482   9.540
   458G11  C08A31051   9.724   9.352   9.497
   458G11  C08931052   9.824   9.267   9.476
   458G11  C08831053   9.800   9.137   9.432
   458G11  C08731054   9.910   9.057   9.400
   458G11  C08631055  10.037   9.115   9.409
   458G11  C08X31056   9.667   9.084   9.424
   458G11  C08T31057   9.556   9.182   9.438
   458G11  C08D31058   9.950   9.323   9.486
   458G11  C08U31059   9.595   9.305   9.482
   458G11  C08V31060   9.481   9.387   9.493
   458G11  C0CY31061   9.494   9.505   9.554
   458G11  C0CX31062   9.384   9.566   9.593
   458G11  C0CW31063   9.396   9.684   9.661
   458G11  C0CV31064   9.522   9.740   9.673
   458G11  C0D431065   9.637   9.678   9.632
   458G11  C0CU31066   9.535   9.865   9.730
   458G11  C0CT31067   9.426   9.939   9.781
   458G11  C0CS31068   9.302   9.877   9.767
   458G11  C0D631069   9.659   9.918   9.741
   458G11  C0EC31070   9.777   9.853   9.706
   458G11  C07X31071   9.906   9.907   9.722
   458G11  C0DL31072   9.676  10.038   9.801
   458G11  C0DK31073   9.801  10.098   9.807
   458G11  C0DN31074   9.781  10.221   9.854
   458G11  C0D831075   9.573  10.118   9.843
   458G11  C08W31076   9.362   9.319   9.477
   458G11  C0CQ31077   9.242   9.383   9.514
   458G11  C09331078   9.619   9.555   9.573
   458G11  C09231079   9.765   9.725   9.651
   458G11  C08531080   9.968   9.452   9.530
   458G11  C07S31081  10.058   9.244   9.454
   458G11  C06F31082  10.275   9.101   9.381
   458G11  C07O31083  10.333   9.481   9.545
   458G11  C07N31084  10.348   9.605   9.601
   458G11  C05D31085  10.526   9.220   9.410
   458G11  C05C31086  10.506   9.100   9.351
   458G11  C05N31087  10.634   9.040   9.341
   458G11  C05M31088  10.942   9.176   9.521
   458G11  C05I31089  11.066   9.361   9.609
   458G11  C06131090  11.313   9.462   9.687
   458G11  C02Q31091  11.532   9.416   9.759
   458G11  C02O31092  11.715   9.192   9.820
   458G11  C03Q31093  11.410   9.122   9.638
   458G11  C03O31094  11.316   8.903   9.605
   458G11  C03L31095  11.434   8.588   9.686
   458G11  C02S31096  11.646   8.889   9.772
   458G11  C02T31097  11.801   8.701   9.903
   458G11  C03K31098  11.510   8.481   9.768
   458G11  C03I31099  11.874   8.601   9.962
   458G11  C03G31100  12.010   8.416  10.122
   458G11  H00D31101  12.060   8.340  10.180
   458G11  C03J31102  11.678   8.296   9.903
   458G11  C03W31103  11.615   8.019   9.914
   458G11  C04I31104  11.423   8.054   9.783
   458G11  C04K31105  11.175   7.984   9.682
   458G11  C04N31106  11.044   7.966   9.624
   458G11  C04X31107  10.842   8.047   9.507
   458G11  C05031108  10.633   8.134   9.401
   458G11  C05W31109  10.764   8.381   9.381
   458G11  C05S31110  10.308   8.450   9.252
   458G11  C05R31111  10.620   8.620   9.264
   458G11  C05O31112  10.639   8.909   9.296
   458G11  C05B31113  10.382   9.035   9.332
   458G11  C05A31114  10.282   8.694   9.257
   458G11  C07R31115  10.151   9.037   9.374
   458G11  C08N31116   9.893   8.922   9.358
   458G11  C08M31117   9.756   8.869   9.357
   458G11  C08L31118   9.738   8.741   9.306
   458G11  C09131119  10.207   8.570   9.261
   458G11  C09K31120   9.957   8.495   9.015
   458G11  H00M31121  10.035   8.491   8.941
   458G11  C08K31122   9.850   8.663   9.273
   458G11  C09J31123   9.814   8.477   8.989
   458G11  C09I31124   9.713   8.495   8.888
   458G11  C09L31125   9.719   8.495   8.746
   458G11  H00N31126   9.806   8.470   8.688
   458G11  C09Q31127   9.602   8.523   8.682
   458G11  H00O31128   9.604   8.507   8.575
   458G11  O00B31129   9.480   8.557   8.740
   458G11  C09G31130   9.474   8.574   8.876
   458G11  C09F31131   9.346   8.618   8.928
   458G11  O00A31132   9.255   8.634   8.830
   458G11  C09P31133   9.126   8.650   8.874
   458G11  H00P31134   9.062   8.564   8.879
   458G11  C09O31135   9.098   8.742   8.977
   458G11  C09D31136   9.192   8.732   9.089
   458G11  C09C31137   9.189   8.799   9.216
   458G11  C09N31138   9.103   8.909   9.268
   458G11  C09T31139   9.004   8.977   9.195
   458G11  C09S31140   8.947   8.930   9.064
   458G11  C0CP31141   8.837   9.020   9.051
   458G11  C0CN31142   8.826   9.113   9.156
   458G11  C0CO31143   8.731   9.212   9.141
   458G11  H01431144   8.712   9.282   9.222
   458G11  C0CZ31145   8.653   9.215   9.018
   458G11  H01531146   8.568   9.280   9.004
   458G11  C0D031147   8.669   9.111   8.916
   458G11  C0G531148   8.584   9.090   8.799
   458G11  H01F31149   8.496   9.151   8.791
   458G11  C0G431150   8.610   8.991   8.711
   458G11  H01G31151   8.536   8.981   8.633
   458G11  O00H31152   8.718   8.899   8.716
   458G11  C0D231153   8.789   8.912   8.833
   458G11  C09V31154   8.895   8.816   8.861
   458G11  H00Q31155   8.901   8.734   8.791
   458G11  C0D131156   8.765   9.011   8.931
   458G11  C09R31157   8.983   8.827   8.973
   458G11  C09H31158   9.592   8.540   8.947
   458G11  C09E31159   9.322   8.664   9.067
   458G11  C09B31160   9.282   8.786   9.315
   458G11  C08Z31161   9.609   8.699   9.285
   458G11  C08O31162   9.642   8.947   9.402
   458G11  C09A31163   9.267   8.877   9.418
   458G11  C08S31164   9.413   9.191   9.442
   458G11  C09931165   9.152   8.954   9.397
   458G11  C09U31166   8.930   9.090   9.254
   458G11  C0BO31167   8.769   9.413   9.566
   458G11  C0CL31168   9.118   9.328   9.486
   458G11  C0D331169   9.260   9.505   9.573
   458G11  C0D531170   9.283   9.750   9.703
   458G11  C0BR31171   8.905   9.596   9.634
   458G11  C0BQ31172   8.780   9.539   9.622
   458G11  C0BL31173   8.530   9.421   9.608
   458G11  C0AF31174   8.304   9.570   9.652
   458G11  C0BH31175   8.569   9.813   9.744
   458G11  C0BG31176   8.581   9.938   9.807
   458G11  C0BD31177   8.337   9.960   9.809
   458G11  C0AG31178   8.201   9.653   9.673
   458G11  C0AI31179   7.962   9.663   9.711
   458G11  C0AV31180   7.752   9.771   9.842
   458G11  C0BB31181   7.989  10.053   9.810
   458G11  O00C31182   7.692   9.966   9.973
   458G11  C0BC31183   7.979  10.169   9.872
   458G11  C0B931184   8.225  10.043   9.836
   458G11  O00E31185   8.374  10.335   9.983
   458G11  C0CA31186   8.495  10.390   9.993
   458G11  O00F31187   8.499  10.513  10.034
   458G11  C0BF31188   8.464  10.011   9.846
   458G11  C0C531189   8.608  10.313   9.964
   458G11  C0C431190   8.734  10.381   9.984
   458G11  H01131191   8.736  10.483  10.021
   458G11  C0C831192   8.708   9.984   9.833
   458G11  C0C231193   8.855  10.304   9.956
   458G11  C0C331194   8.988  10.341   9.980
   458G11  C0DY31195   9.027  10.454  10.049
   458G11  H01631196   8.962  10.529  10.090
   458G11  C0DX31197   9.169  10.444  10.076
   458G11  C0DW31198   9.235  10.509  10.182
   458G11  C0BY31199   8.945   9.968   9.815
   458G11  C0DB31200   9.097  10.262   9.958
   458G11  C0CC31201   9.189   9.952   9.803
   458G11  C0D731202   9.440  10.065   9.841
   458G11  C0DZ31203   9.214  10.328   9.998
   458G11  C0DM31204   9.641  10.241   9.877
   458G11  C0DQ31205   9.466  10.471  10.077
   458G11  C0DV31206   9.375  10.531  10.169
   458G11  C0E031207   9.190  10.608  10.277
   458G11  C0FO31208   9.333  10.925  10.338
   458G11  C0E331209   9.076  10.702  10.272
   458G11  H01731210   8.986  10.706  10.212
   458G11  C0GV31211   9.235  11.022  10.330
   458G11  C0ES31212   9.459  10.949  10.274
   458G11  C0GQ31213   9.400  11.300  10.167
   458G11  C0FJ31214   9.754  11.272  10.054
   458G11  C0ED31215   9.707  11.006  10.137
   458G11  C0ER31216  10.038  11.020  10.229
   458G11  C0EP31217  10.107  10.821  10.158
   458G11  C0E631218   9.732  10.755  10.119
   458G11  C0DE31219   9.821  10.508   9.962
   458G11  C0EA31220  10.182  10.596  10.057
   458G11  C0DF31221   9.908  10.428   9.883
   458G11  C08031222  10.245  10.316   9.877
   458G11  C0DO31223   9.898  10.290   9.870
   458G11  C0DJ31224   9.923  10.033   9.772
   458G11  C07K31225  10.291  10.071   9.770
   458G11  C07W31226  10.020   9.835   9.687
   458G11  C08331227  10.235   9.683   9.625
   458G11  C07J31228  10.405   9.992   9.745
   458G11  C06O31229  10.627   9.824   9.706
   458G11  C06M31230  10.478   9.650   9.629
   468G11  C07131231   6.772   6.825   7.725
   468G11  C07L31232   6.796   6.706   7.651
   468G11  C07M31233   6.698   6.606   7.640
   468G11  C07Y31234   6.717   6.492   7.565
   468G11  C08131235   6.837   6.470   7.494
   468G11  C08231236   6.847   6.352   7.420
   468G11  C0DI31237   6.952   6.306   7.325
   468G11  C0DH31238   7.079   6.356   7.284
   468G11  C0DG31239   7.131   6.282   7.174
   468G11  C0E931240   7.261   6.245   7.134
   468G11  C0E831241   7.235   6.116   7.059
   468G11  C0E731242   7.321   6.032   6.971
   468G11  C0EB31243   7.462   6.075   6.959
   468G11  C0EF31244   7.567   6.007   6.883
   468G11  C0EE31245   7.582   5.872   6.844
   468G11  C0FD31246   7.687   5.793   6.890
   468G11  C0FE31247   7.768   5.831   6.997
   468G11  H01B31248   7.747   5.922   7.051
   468G11  C0FF31249   7.883   5.769   7.036
   468G11  H01A31250   7.953   5.814   7.105
   468G11  C0FG31251   7.910   5.642   6.981
   468G11  H01831252   8.006   5.598   7.002
   468G11  C0FH31253   7.834   5.599   6.868
   468G11  C0FI31254   7.859   5.484   6.781
   468G11  H01931255   7.948   5.424   6.797
   468G11  O00K31256   7.778   5.440   6.681
   468G11  C0FL31257   7.656   5.491   6.677
   468G11  C0FK31258   7.621   5.616   6.740
   468G11  C0FM31259   7.497   5.674   6.721
   468G11  C0FN31260   7.402   5.606   6.644
   468G11  C0FP31261   7.430   5.479   6.599
   468G11  C0GO31262   7.334   5.392   6.546
   468G11  C0GN31263   7.347   5.255   6.536
   468G11  C0GR31264   7.478   5.206   6.534
   468G11  C0GS31265   7.492   5.066   6.504
   468G11  H01Q31266   7.594   5.030   6.498
   468G11  C0GT31267   7.381   4.980   6.487
   468G11  H01O31268   7.394   4.874   6.470
   468G11  C0GU31269   7.253   5.028   6.507
   468G11  H01P31270   7.173   4.955   6.504
   468G11  O00L31271   7.582   5.297   6.562
   468G11  C0GM31272   7.228   5.168   6.521
   468G11  C0GL31273   7.099   5.235   6.507
   468G11  H01R31274   7.012   5.177   6.478
   468G11  C0GK31275   7.093   5.374   6.502
   468G11  C0GP31276   6.982   5.470   6.495
   468G11  C0E231277   7.043   5.604   6.501
   468G11  C0E131278   6.956   5.678   6.591
   468G11  C0DU31279   7.000   5.747   6.707
   468G11  C0DT31280   7.116   5.810   6.734
   468G11  C0E431281   7.239   5.775   6.694
   468G11  C0E531282   7.335   5.844   6.775
   468G11  C0DS31283   7.136   5.889   6.850
   468G11  C0DR31284   7.032   5.879   6.945
   468G11  C0DD31285   7.021   5.952   7.065
   468G11  C0DC31286   6.896   5.904   7.130
   468G11  C0DP31287   6.839   5.793   7.054
   468G11  C0DA31288   6.728   5.704   7.087
   468G11  C0D931289   6.634   5.713   7.201
   468G11  C0CR31290   6.547   5.599   7.233
   468G11  C0C031291   6.563   5.478   7.173
   468G11  C0BZ31292   6.497   5.362   7.199
   468G11  C0C131293   6.513   5.244   7.124
   468G11  C0C731294   6.439   5.129   7.157
   468G11  C0C631295   6.453   5.006   7.082
   468G11  C0C931296   6.369   4.898   7.110
   468G11  C0B831297   6.382   4.779   7.035
   468G11  C0B731298   6.304   4.671   7.065
   468G11  C0B631299   6.293   4.531   7.014
   468G11  C0B531300   6.419   4.463   6.998
   468G11  H00Z31301   6.515   4.506   6.975
   468G11  C0B431302   6.399   4.324   7.029
   468G11  H01031303   6.475   4.250   7.050
   468G11  C0B331304   6.255   4.310   7.051
   468G11  C0AP31305   6.168   4.239   7.147
   468G11  C0AQ31306   6.074   4.335   7.194
   468G11  C0AR31307   6.033   4.333   7.330
   468G11  C0AS31308   6.000   4.458   7.379
   468G11  C0AT31309   6.048   4.580   7.329
   468G11  C0BA31310   6.117   4.582   7.207
   468G11  C0AU31311   6.059   4.690   7.413
   468G11  C0BE31312   6.134   4.796   7.375
   468G11  C0BI31313   6.140   4.908   7.459
   468G11  C0BJ31314   6.078   4.909   7.586
   468G11  C0BK31315   6.065   5.023   7.661
   468G11  C0BW31316   6.104   5.143   7.605
   468G11  C0BV31317   6.187   5.144   7.495
   468G11  C0BU31318   6.245   5.257   7.447
   468G11  C0BX31319   6.339   5.247   7.343
   468G11  C0BT31320   6.219   5.379   7.519
   468G11  C0CD31321   6.285   5.495   7.475
   468G11  C0CB31322   6.375   5.485   7.370
   468G11  C0CE31323   6.254   5.614   7.539
   468G11  C0CK31324   6.154   5.617   7.637
   468G11  C0BS31325   6.091   5.506   7.686
   468G11  C0CJ31326   5.990   5.506   7.784
   468G11  C0BP31327   5.935   5.387   7.835
   468G11  C0CI31328   5.837   5.385   7.933
   468G11  C0CH31329   5.782   5.258   7.960
   468G11  H01231330   5.688   5.234   8.008
   468G11  C0BN31331   5.845   5.134   7.929
   468G11  C0CG31332   5.814   5.007   7.988
   468G11  C0CF31333   5.721   5.000   8.100
   468G11  H01331334   5.670   5.081   8.150
   468G11  O00G31335   5.697   4.882   8.166
   468G11  C0AA31336   5.759   4.767   8.117
   468G11  C0A931337   5.727   4.648   8.178
   468G11  H00U31338   5.666   4.642   8.267
   468G11  C0A831339   5.772   4.526   8.124
   468G11  H00V31340   5.740   4.444   8.186
   468G11  C0A731341   5.845   4.518   8.002
   468G11  C0A631342   5.872   4.643   7.932
   468G11  C0A531343   5.925   4.657   7.804
   468G11  C0A431344   5.949   4.540   7.722
   468G11  C0A331345   5.967   4.400   7.732
   468G11  C0A231346   5.953   4.332   7.850
   468G11  C0A131347   5.962   4.190   7.858
   468G11  C0A031348   6.006   4.079   7.767
   468G11  C09Z31349   6.024   3.956   7.824
   468G11  C09Y31350   6.083   3.847   7.753
   468G11  H00Y31351   6.099   3.749   7.795
   468G11  C09X31352   6.128   3.874   7.626
   468G11  C09W31353   6.190   3.759   7.561
   468G11  H00R31354   6.211   3.662   7.604
   468G11  C0AX31355   6.238   3.769   7.432
   468G11  H00S31356   6.291   3.690   7.382
   468G11  C0AW31357   6.216   3.887   7.368
   468G11  H00T31358   6.255   3.902   7.268
   468G11  C0AN31359   6.148   3.998   7.419
   468G11  C0AO31360   6.126   4.116   7.350
   468G11  C0AM31361   6.108   3.994   7.558
   468G11  C0B231362   5.976   3.924   7.959
   468G11  O00D31363   5.988   3.811   8.009
   468G11  C0B131364   5.917   4.030   8.036
   468G11  H00W31365   5.878   4.009   8.135
   468G11  C0AL31366   6.039   4.102   7.626
   468G11  C0AK31367   6.019   4.216   7.547
   468G11  C0B031368   5.914   4.157   7.986
   468G11  C0AZ31369   5.867   4.273   8.056
   468G11  H00X31370   5.831   4.272   8.158
   468G11  C0AJ31371   5.978   4.343   7.603
   468G11  C0AH31372   5.936   4.569   7.584
   468G11  C0AE31373   5.960   4.780   7.752
   468G11  C0AD31374   5.941   4.898   7.825
   468G11  C0AY31375   5.893   4.386   7.970
   468G11  C0AB31376   5.833   4.763   7.996
   468G11  C0AC31377   5.864   4.887   7.941
   468G11  C0BM31378   5.947   5.141   7.831
   468G11  C0CM31379   5.794   5.509   7.998
   468G11  C09M31380   5.835   5.634   7.940
   468G11  C09831381   5.758   5.752   7.971
   468G11  C08R31382   5.790   5.894   7.970
   468G11  C08Q31383   5.693   5.980   8.019
   468G11  C08P31384   5.682   6.115   8.083
   468G11  C08Y31385   5.572   6.137   8.159
   468G11  C09731386   5.492   6.026   8.195
   468G11  C09631387   5.451   6.034   8.322
   468G11  C09031388   5.461   6.172   8.351
   468G11  C09531389   5.440   6.232   8.478
   468G11  C09431390   5.451   6.375   8.508
   468G11  C08J31391   5.532   6.474   8.452
   468G11  C08I31392   5.573   6.565   8.554
   468G11  C08H31393   5.702   6.630   8.501
   468G11  C08G31394   5.737   6.549   8.379
   468G11  C08F31395   5.834   6.558   8.265
   468G11  C08E31396   5.912   6.679   8.239
   468G11  C05931397   5.902   6.803   8.307
   468G11  C05831398   5.982   6.914   8.265
   468G11  C05731399   5.980   7.045   8.321
   468G11  C05631400   5.884   7.063   8.426
   468G11  C05531401   5.787   6.972   8.450
   468G11  C05431402   5.733   7.011   8.574
   468G11  C05331403   5.809   7.119   8.626
   468G11  C05231404   5.817   7.175   8.756
   468G11  C05131405   5.744   7.117   8.868
   468G11  C05U31406   5.675   6.992   8.870
   468G11  C05T31407   5.652   6.889   8.763
   468G11  C06K31408   5.558   6.798   8.820
   468G11  H00J31409   5.513   6.721   8.759
   468G11  C06L31410   5.530   6.833   8.955
   468G11  H00I31411   5.455   6.790   9.020
   468G11  C05V31412   5.599   6.956   8.981
   468G11  C06J31413   5.588   7.027   9.092
   468G11  H00K31414   5.528   6.979   9.168
   468G11  C05X31415   5.671   7.141   9.107
   468G11  C06I31416   5.674   7.212   9.224
   468G11  H00L31417   5.608   7.186   9.305
   468G11  C04Z31418   5.756   7.326   9.246
   468G11  C06H31419   5.760   7.400   9.372
   468G11  H00H31420   5.703   7.370   9.460
   468G11  C04Y31421   5.854   7.511   9.383
   468G11  C06G31422   5.859   7.576   9.512
   468G11  O00931423   5.793   7.545   9.613
   468G11  O00831424   5.941   7.685   9.525
   468G11  C04P31425   6.027   7.725   9.422
   468G11  C04J31426   6.124   7.839   9.431
   468G11  C04Q31427   6.156   7.921   9.543
   468G11  H00E31428   6.109   7.894   9.636
   468G11  C04M31429   6.248   8.026   9.541
   468G11  C04R31430   6.298   8.092   9.654
   468G11  H00F31431   6.260   8.078   9.754
   468G11  C04S31432   6.397   8.186   9.641
   468G11  H00G31433   6.433   8.238   9.728
   468G11  O00731434   6.446   8.234   9.518
   468G11  C03V31435   6.414   8.155   9.409
   468G11  C03U31436   6.491   8.163   9.298
   468G11  O00631437   6.577   8.264   9.295
   468G11  C03F31438   6.669   8.274   9.198
   468G11  C03E31439   6.665   8.188   9.089
   468G11  C03D31440   6.566   8.090   9.080
   468G11  C03C31441   6.553   8.003   8.967
   468G11  C03B31442   6.652   8.023   8.875
   468G11  C03A31443   6.646   7.945   8.759
   468G11  C03931444   6.541   7.851   8.733
   468G11  C03831445   6.575   7.799   8.602
   468G11  C03731446   6.698   7.857   8.571
   468G11  C03631447   6.751   7.844   8.448
   468G11  C02R31448   6.871   7.898   8.398
   468G11  C03531449   6.881   7.827   8.272
   468G11  C03R31450   6.770   7.744   8.246
   468G11  C03S31451   6.782   7.619   8.183
   468G11  C04931452   6.683   7.524   8.199
   468G11  C04831453   6.588   7.555   8.297
   468G11  C03P31454   6.588   7.668   8.392
   468G11  C04731455   6.478   7.470   8.293
   468G11  C04631456   6.356   7.482   8.359
   468G11  C04531457   6.313   7.563   8.468
   468G11  C03T31458   6.389   7.656   8.535
   468G11  C04431459   6.322   7.682   8.657
   468G11  C04331460   6.192   7.629   8.643
   468G11  C04231461   6.139   7.602   8.772
   468G11  C04131462   6.221   7.692   8.853
   468G11  C04031463   6.192   7.705   8.993
   468G11  C03Z31464   6.253   7.804   9.075
   468G11  C04H31465   6.193   7.785   9.203
   468G11  C04G31466   6.094   7.688   9.188
   468G11  C03N31467   6.363   7.897   9.071
   468G11  C03Y31468   6.379   7.980   9.187
   468G11  C03X31469   6.304   7.963   9.307
   468G11  C04F31470   6.094   7.633   9.064
   468G11  C04E31471   6.005   7.525   9.045
   468G11  C04O31472   5.926   7.479   9.153
   468G11  C04D31473   5.988   7.458   8.923
   468G11  C04V31474   5.900   7.346   8.913
   468G11  C04W31475   5.830   7.294   9.024
   468G11  C04C31476   6.052   7.481   8.796
   468G11  C04L31477   5.985   7.384   8.706
   468G11  C04U31478   6.003   7.380   8.563
   468G11  C05Q31479   5.964   7.272   8.488
   468G11  C05P31480   6.055   7.260   8.378
   468G11  C04T31481   6.152   7.359   8.389
   468G11  C04B31482   6.108   7.441   8.496
   468G11  C03M31483   6.340   7.740   8.787
   468G11  C04A31484   6.195   7.533   8.538
   468G11  C05H31485   6.277   7.375   8.324
   468G11  C05G31486   6.342   7.300   8.227
   468G11  C05F31487   6.288   7.192   8.157
   468G11  C05E31488   6.363   7.102   8.086
   468G11  C05L31489   6.493   7.100   8.018
   468G11  C05K31490   6.586   7.204   8.027
   468G11  C05J31491   6.586   7.315   8.116
   468G11  C06631492   6.704   7.184   7.949
   468G11  C06531493   6.723   7.067   7.864
   468G11  C06431494   6.630   6.965   7.868
   468G11  C06N31495   6.840   7.044   7.799
   468G11  C06931496   6.946   7.137   7.798
   468G11  C06P31497   7.069   7.116   7.734
   468G11  C06R31498   7.180   7.201   7.753
   468G11  C06B31499   7.159   7.312   7.832
   468G11  C06S31500   7.274   7.393   7.857
   468G11  C02G31501   7.268   7.503   7.941
   468G11  C02F31502   7.376   7.573   7.977
   468G11  C02731503   7.504   7.536   7.930
   468G11  C02631504   7.617   7.599   7.977
   468G11  C00E31505   7.740   7.554   7.943
   468G11  C00D31506   7.855   7.606   8.005
   468G11  C00C31507   7.977   7.547   7.978
   468G11  C00B31508   7.999   7.442   7.899
   468G11  C01531509   7.882   7.388   7.842
   468G11  C07F31510   7.895   7.274   7.764
   468G11  C07E31511   7.779   7.216   7.709
   468G11  C06W31512   7.657   7.274   7.726
   468G11  C06V31513   7.642   7.383   7.806
   468G11  C06X31514   7.539   7.210   7.682
   468G11  C07B31515   7.551   7.095   7.608
   468G11  C07C31516   7.677   7.043   7.574
   468G11  C0FU31517   7.688   6.926   7.498
   468G11  C0F731518   7.813   6.868   7.479
   468G11  C0F631519   7.820   6.748   7.408
   468G11  C0F831520   7.942   6.693   7.380
   468G11  C0F931521   7.957   6.581   7.297
   468G11  C0FA31522   8.083   6.537   7.262
   468G11  C0FZ31523   8.191   6.589   7.332
   468G11  C0G031524   8.314   6.534   7.312
   468G11  C0GD31525   8.338   6.446   7.208
   468G11  C0FC31526   8.228   6.405   7.129
   468G11  C0GH31527   8.250   6.321   7.017
   468G11  C0EY31528   8.135   6.267   6.950
   468G11  C0EX31529   8.150   6.186   6.833
   468G11  C0EW31530   8.033   6.141   6.776
   468G11  C0FR31531   8.043   6.069   6.657
   468G11  H01D31532   7.955   6.032   6.606
   468G11  C0FS31533   8.163   6.035   6.595
   468G11  H01C31534   8.158   5.983   6.500
   468G11  C0GJ31535   8.278   6.094   6.651
   468G11  H01N31536   8.369   6.080   6.595
   468G11  C0EV31537   7.909   6.159   6.837
   468G11  C0FT31538   7.797   6.072   6.801
   468G11  H01E31539   7.809   5.992   6.731
   468G11  C0EU31540   7.897   6.251   6.939
   468G11  C0ET31541   7.772   6.271   6.993
   468G11  C0EI31542   7.747   6.364   7.092
   468G11  C0F131543   7.859   6.422   7.148
   468G11  C0F031544   7.986   6.387   7.100
   468G11  C0EH31545   7.619   6.388   7.141
   468G11  C0EG31546   7.507   6.299   7.109
   468G11  C0EJ31547   7.607   6.495   7.228
   468G11  C0F331548   7.723   6.566   7.272
   468G11  C0EK31549   7.484   6.533   7.272
   468G11  C0EL31550   7.369   6.455   7.245
   468G11  C0EM31551   7.261   6.507   7.317
   468G11  C0EN31552   7.263   6.630   7.382
   468G11  C07I31553   7.143   6.656   7.452
   468G11  C07431554   7.118   6.781   7.511
   468G11  C07331555   7.003   6.799   7.575
   468G11  C07231556   6.983   6.912   7.652
   468G11  C07531557   7.221   6.867   7.520
   468G11  C07631558   7.345   6.835   7.465
   468G11  C07831559   7.451   6.912   7.492
   468G11  C07G31560   7.206   6.981   7.599
   468G11  C07031561   7.315   7.064   7.619
   468G11  C07Z31562   7.056   6.553   7.431
   468G11  C07731563   7.365   6.720   7.390
   468G11  C0EO31564   7.482   6.663   7.343
   468G11  C0F431565   7.591   6.741   7.380
   468G11  C0EQ31566   7.659   6.196   6.948
   468G11  C0FQ31567   8.272   6.159   6.774
   468G11  C0GI31568   8.384   6.209   6.847
   468G11  H01L31569   8.484   6.190   6.812
   468G11  C0EZ31570   8.009   6.305   6.996
   468G11  C0GG31571   8.374   6.290   6.967
   468G11  C0GF31572   8.478   6.322   7.055
   468G11  H01M31573   8.580   6.296   7.029
   468G11  C0GE31574   8.458   6.396   7.168
   468G11  H01K31575   8.541   6.434   7.226
   468G11  O00J31576   8.420   6.563   7.391
   468G11  C0GA31577   8.405   6.660   7.483
   468G11  C0G931578   8.516   6.694   7.554
   468G11  H01H31579   8.594   6.620   7.541
   468G11  C0G831580   8.511   6.802   7.641
   468G11  C0G731581   8.627   6.848   7.714
   468G11  H01I31582   8.712   6.781   7.705
   468G11  O00I31583   8.620   6.957   7.799
   468G11  C0G631584   8.512   7.035   7.793
   468G11  H01J31585   8.520   7.127   7.849
   468G11  C02D31586   8.391   6.997   7.728
   468G11  C02C31587   8.274   7.073   7.737
   468G11  C01731588   8.256   7.199   7.804
   468G11  C01631589   8.131   7.270   7.817
   468G11  O00131590   8.365   7.265   7.851
   468G11  C01831591   8.356   7.369   7.942
   468G11  C00931592   8.231   7.431   7.958
   468G11  C00831593   8.206   7.544   8.049
   468G11  C00731594   8.278   7.631   8.139
   468G11  C00631595   8.416   7.619   8.163
   468G11  C00531596   8.487   7.710   8.245
   468G11  C00431597   8.438   7.822   8.324
   468G11  C00331598   8.307   7.870   8.365
   468G11  C00231599   8.291   7.967   8.469
   468G11  C00P31600   8.158   8.012   8.507
   468G11  C00O31601   8.139   8.109   8.606
   468G11  C00N31602   8.012   8.144   8.653
   468G11  C01031603   8.001   8.230   8.765
   468G11  C01131604   7.872   8.264   8.813
   468G11  C01Q31605   7.862   8.349   8.925
   468G11  C01U31606   7.975   8.407   8.987
   468G11  C01231607   8.100   8.374   8.931
   468G11  H00031608   8.191   8.404   8.980
   468G11  C01V31609   7.949   8.480   9.105
   468G11  H00731610   8.033   8.533   9.148
   468G11  O00531611   7.831   8.500   9.162
   468G11  C01W31612   7.726   8.443   9.098
   468G11  C03131613   7.593   8.465   9.157
   468G11  C03231614   7.487   8.395   9.103
   468G11  H00A31615   7.386   8.398   9.142
   468G11  C03331616   7.495   8.325   8.987
   468G11  H00B31617   7.407   8.270   8.958
   468G11  C01O31618   7.620   8.315   8.921
   468G11  C01N31619   7.630   8.246   8.804
   468G11  C01M31620   7.513   8.209   8.716
   468G11  C01L31621   7.359   8.190   8.716
   468G11  C01K31622   7.333   8.116   8.598
   468G11  C01Y31623   7.212   8.066   8.549
   468G11  C02I31624   7.101   8.085   8.630
   468G11  C02N31625   6.981   8.019   8.586
   468G11  C02M31626   6.874   8.029   8.679
   468G11  C02L31627   6.876   8.103   8.796
   468G11  C02K31628   6.992   8.182   8.825
   468G11  C02U31629   6.976   8.280   8.917
   468G11  C02V31630   6.870   8.285   8.999
   468G11  C03H31631   6.864   8.374   9.115
   468G11  H00C31632   6.946   8.441   9.139
   468G11  C02W31633   7.075   8.381   8.914
   468G11  C02X31634   7.195   8.357   8.848
   468G11  C02Y31635   7.266   8.480   8.864
   468G11  H00831636   7.363   8.513   8.830
   468G11  C02Z31637   7.181   8.579   8.942
   468G11  O00431638   7.197   8.689   8.979
   468G11  O00331639   7.071   8.506   8.970
   468G11  C02J31640   7.112   8.170   8.746
   468G11  C01Z31641   7.215   7.981   8.441
   468G11  C02031642   7.334   7.966   8.367
   468G11  C01I31643   7.451   8.020   8.412
   468G11  C01H31644   7.573   7.983   8.373
   468G11  C00K31645   7.685   8.024   8.438
   468G11  C01S31646   7.678   8.099   8.555
   468G11  C01431647   7.778   8.132   8.635
   468G11  C00J31648   7.808   7.983   8.400
   468G11  C00I31649   7.820   7.895   8.295
   468G11  C00H31650   7.712   7.854   8.226
   468G11  C00G31651   7.723   7.762   8.124
   468G11  C00S31652   7.946   7.843   8.267
   468G11  C00T31653   7.949   7.758   8.160
   468G11  C00U31654   8.073   7.701   8.135
   468G11  C00R31655   8.061   7.879   8.336
   468G11  C00L31656   7.916   8.016   8.474
   468G11  C02831657   7.588   7.898   8.263
   468G11  C02331658   7.467   7.850   8.202
   468G11  C02431659   7.481   7.752   8.107
   468G11  C02131660   7.342   7.880   8.257
   468G11  C02231661   7.231   7.814   8.210
   468G11  C02H31662   7.244   7.720   8.110
   468G11  C03031663   7.132   7.649   8.077
   468G11  C03431664   7.006   7.684   8.125
   468G11  C02P31665   7.109   7.854   8.269
   468G11  C02B31666   7.102   7.930   8.386
   468G11  C01J31667   7.443   8.097   8.526
   468G11  C01X31668   7.237   8.244   8.774
   468G11  C01T31669   7.551   8.145   8.594
   468G11  H00931670   7.590   8.520   9.250
   468G11  C01P31671   7.732   8.370   8.979
   468G11  C01R31672   7.754   8.212   8.750
   468G11  C00Z31673   8.117   8.276   8.831
   468G11  O00031674   8.241   8.237   8.791
   468G11  C00M31675   7.901   8.092   8.590
   468G11  C00Y31676   8.250   8.160   8.678
   468G11  C01331677   8.382   8.121   8.635
   468G11  H00131678   8.463   8.154   8.698
   468G11  C00Q31679   8.045   7.969   8.439
   468G11  C00131680   8.403   8.030   8.527
   468G11  C00031681   8.528   7.986   8.480
   468G11  H00631682   8.620   8.034   8.510
   468G11  C00W31683   8.188   7.826   8.308
   468G11  C01G31684   8.547   7.885   8.390
   468G11  H00531685   8.650   7.855   8.379
   468G11  C01C31686   8.622   7.667   8.227
   468G11  H00231687   8.712   7.712   8.267
   468G11  C01B31688   8.625   7.549   8.143
   468G11  C01D31689   8.741   7.480   8.091
   468G11  H00331690   8.842   7.501   8.123
   468G11  C01E31691   8.715   7.380   8.001
   468G11  H00431692   8.800   7.328   7.961
   468G11  O00231693   8.587   7.337   7.970
   468G11  C01A31694   8.496   7.521   8.099
   468G11  C00V31695   8.188   7.723   8.202
   468G11  C01931696   8.474   7.413   8.002
   468G11  C02E31697   8.158   7.022   7.672
   468G11  C0FX31698   8.164   6.914   7.583
   468G11  C0FW31699   8.052   6.863   7.518
   468G11  C0GB31700   8.281   6.837   7.581
   468G11  C0G331701   8.033   7.089   7.681
   468G11  C07H31702   7.916   7.042   7.610
   468G11  C0GC31703   8.396   6.882   7.652
   468G11  C0G231704   8.285   6.724   7.502
   468G11  C0G131705   8.177   6.685   7.430
   468G11  C0FB31706   8.100   6.439   7.162
   468G11  C0F231707   7.845   6.520   7.242
   468G11  C0FY31708   8.053   6.742   7.443
   468G11  C0F531709   7.712   6.685   7.354
   468G11  C0FV31710   7.929   6.931   7.527
   468G11  C07931711   7.579   6.861   7.454
   468G11  C07A31712   7.439   7.025   7.568
   468G11  C06Y31713   7.413   7.251   7.722
   468G11  C07D31714   7.789   7.099   7.631
   468G11  C01F31715   8.021   7.213   7.750
   468G11  C00A31716   8.121   7.384   7.889
   468G11  C00X31717   8.086   7.598   8.047
   468G11  C00F31718   7.842   7.710   8.096
   468G11  C02931719   7.753   7.441   7.861
   468G11  C02531720   7.611   7.706   8.071
   468G11  C06U31721   7.514   7.429   7.840
   468G11  C02A31722   7.367   7.683   8.060
   468G11  C05Y31723   7.144   7.534   7.998
   468G11  C05Z31724   7.032   7.450   7.978
   468G11  C06031725   6.912   7.480   8.046
   468G11  C06231726   6.803   7.388   8.036
   468G11  C06T31727   7.397   7.361   7.801
   468G11  C06A31728   7.038   7.337   7.897
   468G11  C06Z31729   7.302   7.175   7.697
   468G11  C06Q31730   7.084   7.005   7.654
   468G11  C06831731   6.929   7.254   7.881
   468G11  C06731732   6.810   7.277   7.948
   468G11  C06331733   6.517   6.977   7.943
   468G11  C06C31734   6.422   6.873   7.938
   468G11  C06D31735   6.311   6.871   8.011
   468G11  C06E31736   6.221   6.766   8.029
   468G11  C07Q31737   6.247   6.652   7.963
   468G11  C07P31738   6.359   6.642   7.881
   468G11  C07T31739   6.376   6.528   7.811
   468G11  C07U31740   6.483   6.523   7.720
   468G11  C07V31741   6.502   6.407   7.647
   468G11  C08431742   6.406   6.305   7.658
   468G11  C08C31743   6.298   6.315   7.737
   468G11  C08B31744   6.210   6.213   7.743
   468G11  C08A31745   6.109   6.226   7.833
   468G11  C08931746   6.085   6.332   7.917
   468G11  C08831747   5.982   6.331   8.011
   468G11  C08731748   5.957   6.447   8.087
   468G11  C08631749   6.043   6.556   8.073
   468G11  C08X31750   5.894   6.219   8.018
   468G11  C08T31751   5.941   6.096   7.953
   468G11  C08D31752   6.172   6.440   7.901
   468G11  C08U31753   6.034   6.108   7.856
   468G11  C08V31754   6.058   5.987   7.794
   468G11  C0CY31755   6.156   5.982   7.695
   468G11  C0CX31756   6.185   5.857   7.649
   468G11  C0CW31757   6.288   5.849   7.556
   468G11  C0CV31758   6.368   5.959   7.530
   468G11  C0D431759   6.343   6.082   7.591
   468G11  C0CU31760   6.477   5.950   7.446
   468G11  C0CT31761   6.503   5.835   7.373
   468G11  C0CS31762   6.415   5.727   7.395
   468G11  C0D631763   6.560   6.057   7.445
   468G11  C0EC31764   6.541   6.171   7.514
   468G11  C07X31765   6.636   6.272   7.510
   468G11  C0DL31766   6.668   6.039   7.369
   468G11  C0DK31767   6.763   6.135   7.364
   468G11  C0DN31768   6.855   6.098   7.278
   468G11  C0D831769   6.707   5.931   7.291
   468G11  C08W31770   5.991   5.879   7.850
   468G11  C0CQ31771   6.014   5.745   7.790
   468G11  C09331772   6.236   6.093   7.673
   468G11  C09231773   6.432   6.187   7.588
   468G11  C08531774   6.280   6.428   7.815
   468G11  C07S31775   6.154   6.547   7.983
   468G11  C06F31776   6.110   6.776   8.114
   468G11  C07O31777   6.448   6.750   7.871
   468G11  C07N31778   6.559   6.739   7.793
   468G11  C05D31779   6.288   6.988   8.074
   468G11  C05C31780   6.168   7.000   8.141
   468G11  C05N31781   6.171   7.123   8.200
   468G11  C05M31782   6.478   7.351   8.207
   468G11  C05I31783   6.687   7.411   8.116
   468G11  C06131784   6.898   7.598   8.117
   468G11  C02Q31785   6.999   7.791   8.215
   468G11  C02O31786   6.985   7.952   8.463
   468G11  C03Q31787   6.695   7.752   8.362
   468G11  C03O31788   6.515   7.703   8.511
   468G11  C03L31789   6.437   7.836   8.829
   468G11  C02S31790   6.757   7.943   8.667
   468G11  C02T31791   6.765   8.103   8.885
   468G11  C03K31792   6.447   7.910   8.954
   468G11  C03I31793   6.769   8.190   8.992
   468G11  C03G31794   6.767   8.368   9.210
   468G11  H00D31795   6.773   8.427   9.301
   468G11  C03J31796   6.478   8.078   9.187
   468G11  C03W31797   6.320   8.048   9.420
   468G11  C04I31798   6.211   7.861   9.323
   468G11  C04K31799   6.020   7.656   9.296
   468G11  C04N31800   5.932   7.553   9.278
   468G11  C04X31801   5.840   7.366   9.142
   468G11  C05031802   5.746   7.180   8.997
   468G11  C05W31803   5.898   7.294   8.785
   468G11  C05S31804   5.706   6.882   8.631
   468G11  C05R31805   5.883   7.163   8.517
   468G11  C05O31806   6.070   7.148   8.294
   468G11  C05B31807   6.083   6.893   8.174
   468G11  C05A31808   5.812   6.837   8.423
   468G11  C07R31809   6.017   6.670   8.141
   468G11  C08N31810   5.850   6.446   8.179
   468G11  C08M31811   5.756   6.336   8.176
   468G11  C08L31812   5.650   6.337   8.264
   468G11  C09131813   5.741   6.772   8.527
   468G11  C09K31814   5.548   6.491   8.680
   468G11  H00M31815   5.597   6.510   8.774
   468G11  C08K31816   5.641   6.445   8.365
   468G11  C09J31817   5.457   6.385   8.647
   468G11  C09I31818   5.399   6.267   8.699
   468G11  C09L31819   5.344   6.239   8.830
   468G11  H00N31820   5.329   6.302   8.916
   468G11  C09Q31821   5.286   6.119   8.846
   468G11  H00O31822   5.238   6.092   8.939
   468G11  O00B31823   5.292   6.018   8.750
   468G11  C09G31824   5.339   6.042   8.621
   468G11  C09F31825   5.358   5.926   8.534
   468G11  O00A31826   5.320   5.809   8.599
   468G11  C09P31827   5.314   5.699   8.516
   468G11  H00P31828   5.235   5.630   8.541
   468G11  C09O31829   5.411   5.674   8.415
   468G11  C09D31830   5.441   5.793   8.342
   468G11  C09C31831   5.502   5.792   8.209
   468G11  C09N31832   5.577   5.687   8.137
   468G11  C09T31833   5.641   5.582   8.204
   468G11  C09S31834   5.576   5.517   8.313
   468G11  C0CP31835   5.640   5.391   8.314
   468G11  C0CN31836   5.746   5.382   8.223
   468G11  C0CO31837   5.832   5.272   8.240
   468G11  H01431838   5.917   5.247   8.178
   468G11  C0CZ31839   5.790   5.175   8.335
   468G11  H01531840   5.849   5.084   8.337
   468G11  C0D031841   5.674   5.175   8.411
   468G11  C0G531842   5.618   5.066   8.489
   468G11  H01F31843   5.667   4.970   8.491
   468G11  C0G431844   5.508   5.080   8.563
   468G11  H01G31845   5.475   4.995   8.621
   468G11  O00H31846   5.442   5.204   8.572
   468G11  C0D231847   5.480   5.310   8.485
   468G11  C09V31848   5.421   5.439   8.480
   468G11  H00Q31849   5.349   5.455   8.559
   468G11  C0D131850   5.594   5.291   8.405
   468G11  C09R31851   5.465   5.545   8.392
   468G11  C09H31852   5.392   6.169   8.591
   468G11  C09E31853   5.413   5.921   8.402
   468G11  C09B31854   5.506   5.905   8.133
   468G11  C08Z31855   5.561   6.225   8.260
   468G11  C08O31856   5.776   6.222   8.094
   468G11  C09A31857   5.584   5.885   8.021
   468G11  C08S31858   5.910   5.948   7.947
   468G11  C09931859   5.624   5.751   8.012
   468G11  C09U31860   5.732   5.492   8.131
   468G11  C0BO31861   5.986   5.266   7.784
   468G11  C0CL31862   5.943   5.631   7.837
   468G11  C0D331863   6.117   5.740   7.691
   468G11  C0D531864   6.316   5.729   7.495
   468G11  C0BR31865   6.129   5.386   7.628
   468G11  C0BQ31866   6.072   5.265   7.670
   468G11  C0BL31867   5.984   5.023   7.772
   468G11  C0AF31868   6.013   4.791   7.622
   468G11  C0BH31869   6.211   5.022   7.425
   468G11  C0BG31870   6.288   5.020   7.306
   468G11  C0BD31871   6.210   4.795   7.253
   468G11  C0AG31872   6.004   4.687   7.535
   468G11  C0AI31873   5.965   4.452   7.515
   468G11  C0AV31874   6.053   4.219   7.408
   468G11  C0BB31875   6.111   4.455   7.134
   468G11  O00C31876   6.174   4.123   7.220
   468G11  C0BC31877   6.195   4.433   7.027
   468G11  C0B931878   6.209   4.682   7.171
   468G11  O00E31879   6.474   4.772   6.939
   468G11  C0CA31880   6.551   4.874   6.898
   468G11  O00F31881   6.630   4.853   6.804
   468G11  C0BF31882   6.290   4.903   7.225
   468G11  C0C531883   6.538   4.995   6.976
   468G11  C0C431884   6.614   5.115   6.935
   468G11  H01131885   6.682   5.120   6.851
   468G11  C0C831886   6.355   5.134   7.268
   468G11  C0C231887   6.593   5.235   7.010
   468G11  C0C331888   6.660   5.360   6.978
   468G11  C0DY31889   6.735   5.395   6.868
   468G11  H01631890   6.762   5.337   6.781
   468G11  C0DX31891   6.765   5.537   6.883
   468G11  C0DW31892   6.821   5.621   6.777
   468G11  C0BY31893   6.406   5.365   7.307
   468G11  C0DB31894   6.647   5.479   7.055
   468G11  C0CC31895   6.447   5.605   7.331
   468G11  C0D731896   6.613   5.821   7.286
   468G11  C0DZ31897   6.719   5.590   7.012
   468G11  C0DM31898   6.829   5.972   7.232
   468G11  C0DQ31899   6.923   5.789   6.937
   468G11  C0DV31900   6.914   5.719   6.816
   468G11  C0E031901   6.857   5.588   6.639
   468G11  C0FO31902   7.185   5.590   6.528
   468G11  C0E331903   6.858   5.463   6.564
   468G11  H01731904   6.812   5.369   6.591
   468G11  C0GV31905   7.209   5.450   6.530
   468G11  C0ES31906   7.278   5.666   6.612
   468G11  C0GQ31907   7.554   5.420   6.615
   468G11  C0FJ31908   7.717   5.670   6.829
   468G11  C0ED31909   7.472   5.804   6.784
   468G11  C0ER31910   7.683   6.082   6.870
   468G11  C0EP31911   7.538   6.190   7.014
   468G11  C0E631912   7.269   5.936   6.870
   468G11  C0DE31913   7.093   6.079   7.076
   468G11  C0EA31914   7.379   6.328   7.164
   468G11  C0DF31915   7.035   6.191   7.138
   468G11  C08031916   7.127   6.467   7.344
   468G11  C0DO31917   6.945   6.193   7.246
   468G11  C0DJ31918   6.749   6.258   7.435
   468G11  C07K31919   6.929   6.573   7.500
   468G11  C07W31920   6.617   6.395   7.569
   468G11  C08331921   6.579   6.626   7.711
   468G11  C07J31922   6.907   6.692   7.572
   468G11  C06O31923   6.865   6.931   7.728
   468G11  C06M31924   6.654   6.843   7.800
   478G11  C07131925   2.342   1.062   9.103
   478G11  C07L31926   2.439   1.009   9.011
   478G11  C07M31927   2.403   0.928   8.906
   478G11  C07Y31928   2.501   0.864   8.822
   478G11  C08131929   2.638   0.895   8.842
   478G11  C08231930   2.730   0.833   8.752
   478G11  C0DI31931   2.881   0.851   8.737
   478G11  C0DH31932   2.981   0.922   8.810
   478G11  C0DG31933   3.117   0.891   8.758
   478G11  C0E931934   3.244   0.874   8.833
   478G11  C0E831935   3.303   0.770   8.750
   478G11  C0E731936   3.448   0.753   8.732
   478G11  C0EB31937   3.547   0.837   8.788
   478G11  C0EF31938   3.685   0.863   8.737
   478G11  C0EE31939   3.749   0.829   8.617
   478G11  C0FD31940   3.826   0.922   8.539
   478G11  C0FE31941   3.849   1.061   8.563
   478G11  H01B31942   3.803   1.107   8.650
   478G11  C0FF31943   3.927   1.144   8.488
   478G11  H01A31944   3.933   1.250   8.508
   478G11  C0FG31945   3.987   1.088   8.371
   478G11  H01831946   4.046   1.162   8.319
   478G11  C0FH31947   3.957   0.956   8.336
   478G11  C0FI31948   4.011   0.897   8.216
   478G11  H01931949   4.069   0.960   8.150
   478G11  O00K31950   3.982   0.771   8.173
   478G11  C0FL31951   3.908   0.692   8.256
   478G11  C0FK31952   3.852   0.740   8.379
   478G11  C0FM31953   3.793   0.648   8.462
   478G11  C0FN31954   3.789   0.510   8.429
   478G11  C0FP31955   3.823   0.475   8.300
   478G11  C0GO31956   3.788   0.348   8.245
   478G11  C0GN31957   3.768   0.316   8.114
   478G11  C0GR31958   3.814   0.419   8.027
   478G11  C0GS31959   3.785   0.410   7.891
   478G11  H01Q31960   3.817   0.490   7.826
   478G11  C0GT31961   3.711   0.300   7.845
   478G11  H01O31962   3.685   0.294   7.740
   478G11  C0GU31963   3.665   0.202   7.933
   478G11  H01P31964   3.618   0.113   7.894
   478G11  O00L31965   3.889   0.529   8.074
   478G11  C0GM31966   3.698   0.202   8.072
   478G11  C0GL31967   3.662   0.113   8.176
   478G11  H01R31968   3.608   0.023   8.150
   478G11  C0GK31969   3.704   0.132   8.308
   478G11  C0GP31970   3.673   0.060   8.428
   478G11  C0E231971   3.713   0.151   8.537
   478G11  C0E131972   3.585   0.152   8.619
   478G11  C0DU31973   3.495   0.269   8.629
   478G11  C0DT31974   3.533   0.402   8.657
   478G11  C0E431975   3.653   0.460   8.615
   478G11  C0E531976   3.637   0.599   8.631
   478G11  C0DS31977   3.439   0.502   8.666
   478G11  C0DR31978   3.302   0.470   8.641
   478G11  C0DD31979   3.195   0.563   8.623
   478G11  C0DC31980   3.087   0.483   8.565
   478G11  C0DP31981   3.122   0.341   8.554
   478G11  C0DA31982   3.047   0.220   8.518
   478G11  C0D931983   2.903   0.213   8.457
   478G11  C0CR31984   2.859   0.086   8.401
   478G11  C0C031985   2.934  -0.030   8.388
   478G11  C0BZ31986   2.901  -0.147   8.328
   478G11  C0C131987   2.981  -0.260   8.340
   478G11  C0C731988   2.949  -0.380   8.284
   478G11  C0C631989   3.028  -0.496   8.303
   478G11  C0C931990   2.993  -0.612   8.245
   478G11  C0B831991   3.071  -0.725   8.263
   478G11  C0B731992   3.043  -0.847   8.198
   478G11  C0B631993   3.105  -0.975   8.204
   478G11  C0B531994   3.153  -1.035   8.323
   478G11  H00Z31995   3.174  -0.977   8.411
   478G11  C0B431996   3.144  -1.182   8.307
   478G11  H01031997   3.167  -1.261   8.376
   478G11  C0B331998   3.089  -1.207   8.178
   478G11  C0AP31999   2.983  -1.287   8.121
   478G11  C0AQ32000   2.918  -1.201   8.035
   478G11  C0AR32001   2.782  -1.224   8.006
   478G11  C0AS32002   2.715  -1.107   7.976
   478G11  C0AT32003   2.763  -0.980   7.996
   478G11  C0BA32004   2.888  -0.959   8.041
   478G11  C0AU32005   2.671  -0.873   8.010
   478G11  C0BE32006   2.713  -0.751   8.061
   478G11  C0BI32007   2.622  -0.646   8.066
   478G11  C0BJ32008   2.487  -0.667   8.039
   478G11  C0BK32009   2.392  -0.566   8.058
   478G11  C0BW32010   2.432  -0.441   8.097
   478G11  C0BV32011   2.565  -0.416   8.121
   478G11  C0BU32012   2.605  -0.295   8.179
   478G11  C0BX32013   2.735  -0.277   8.216
   478G11  C0BT32014   2.512  -0.194   8.200
   478G11  C0CD32015   2.553  -0.072   8.249
   478G11  C0CB32016   2.686  -0.047   8.281
   478G11  C0CE32017   2.458   0.026   8.278
   478G11  C0CK32018   2.319  -0.004   8.268
   478G11  C0BS32019   2.280  -0.126   8.212
   478G11  C0CJ32020   2.141  -0.159   8.201
   478G11  C0BP32021   2.106  -0.274   8.130
   478G11  C0CI32022   1.974  -0.308   8.107
   478G11  C0CH32023   1.950  -0.404   8.016
   478G11  H01232024   1.847  -0.413   7.988
   478G11  C0BN32025   2.042  -0.513   8.003
   478G11  C0CG32026   1.994  -0.642   7.972
   478G11  C0CF32027   1.853  -0.673   7.948
   478G11  H01332028   1.774  -0.601   7.932
   478G11  O00G32029   1.819  -0.802   7.922
   478G11  C0AA32030   1.901  -0.903   7.957
   478G11  C0A932031   1.846  -1.027   7.954
   478G11  H00U32032   1.741  -1.047   7.937
   478G11  C0A832033   1.928  -1.129   7.974
   478G11  H00V32034   1.878  -1.225   7.971
   478G11  C0A732035   2.070  -1.120   7.995
   478G11  C0A632036   2.127  -0.992   7.983
   478G11  C0A532037   2.264  -0.961   7.980
   478G11  C0A432038   2.359  -1.069   7.960
   478G11  C0A332039   2.363  -1.215   7.956
   478G11  C0A232040   2.263  -1.290   8.017
   478G11  C0A132041   2.276  -1.428   8.044
   478G11  C0A032042   2.382  -1.530   8.047
   478G11  C09Z32043   2.345  -1.666   8.065
   478G11  C09Y32044   2.444  -1.770   8.057
   478G11  H00Y32045   2.406  -1.871   8.057
   478G11  C09X32046   2.578  -1.735   8.072
   478G11  C09W32047   2.674  -1.843   8.093
   478G11  H00R32048   2.657  -1.949   8.078
   478G11  C0AX32049   2.807  -1.812   8.126
   478G11  H00S32050   2.884  -1.885   8.143
   478G11  C0AW32051   2.843  -1.680   8.128
   478G11  H00T32052   2.944  -1.648   8.151
   478G11  C0AN32053   2.754  -1.574   8.110
   478G11  C0AO32054   2.800  -1.437   8.101
   478G11  C0AM32055   2.618  -1.603   8.076
   478G11  C0B232056   2.210  -1.712   8.085
   478G11  O00D32057   2.165  -1.829   8.096
   478G11  C0B132058   2.109  -1.609   8.085
   478G11  H00W32059   2.007  -1.647   8.081
   478G11  C0AL32060   2.523  -1.498   8.047
   478G11  C0AK32061   2.578  -1.369   8.022
   478G11  C0B032062   2.141  -1.476   8.062
   478G11  C0AZ32063   2.050  -1.371   8.061
   478G11  H00X32064   1.946  -1.380   8.087
   478G11  C0AJ32065   2.504  -1.249   7.970
   478G11  C0AH32066   2.492  -1.017   7.963
   478G11  C0AE32067   2.310  -0.827   7.996
   478G11  C0AD32068   2.217  -0.724   8.002
   478G11  C0AY32069   2.126  -1.251   8.023
   478G11  C0AB32070   2.039  -0.884   7.975
   478G11  C0AC32071   2.085  -0.751   7.982
   478G11  C0BM32072   2.170  -0.487   8.043
   478G11  C0CM32073   1.878  -0.244   8.184
   478G11  C09M32074   1.898  -0.108   8.224
   478G11  C09832075   1.791  -0.016   8.231
   478G11  C08R32076   1.767   0.107   8.297
   478G11  C08Q32077   1.633   0.160   8.306
   478G11  C08P32078   1.547   0.236   8.395
   478G11  C08Y32079   1.411   0.205   8.395
   478G11  C09732080   1.366   0.095   8.324
   478G11  C09632081   1.256   0.035   8.374
   478G11  C09032082   1.212   0.125   8.478
   478G11  C09532083   1.109   0.109   8.570
   478G11  C09432084   1.088   0.190   8.687
   478G11  C08J32085   1.137   0.314   8.732
   478G11  C08I32086   1.116   0.329   8.873
   478G11  C08H32087   1.219   0.411   8.930
   478G11  C08G32088   1.320   0.427   8.826
   478G11  C08F32089   1.442   0.506   8.801
   478G11  C08E32090   1.472   0.620   8.879
   478G11  C05932091   1.379   0.689   8.957
   478G11  C05832092   1.417   0.811   9.023
   478G11  C05732093   1.345   0.873   9.129
   478G11  C05632094   1.216   0.827   9.145
   478G11  C05532095   1.158   0.727   9.070
   478G11  C05432096   1.051   0.667   9.142
   478G11  C05332097   1.052   0.728   9.273
   478G11  C05232098   0.990   0.684   9.401
   478G11  C05132099   0.918   0.559   9.410
   478G11  C05U32100   0.911   0.454   9.305
   478G11  C05T32101   0.976   0.435   9.172
   478G11  C06K32102   0.891   0.344   9.101
   478G11  H00J32103   0.905   0.318   8.997
   478G11  C06L32104   0.784   0.299   9.184
   478G11  H00I32105   0.703   0.231   9.163
   478G11  C05V32106   0.801   0.367   9.310
   478G11  C06J32107   0.721   0.355   9.421
   478G11  H00K32108   0.641   0.283   9.413
   478G11  C05X32109   0.747   0.425   9.535
   478G11  C06I32110   0.676   0.403   9.656
   478G11  H00L32111   0.602   0.325   9.659
   478G11  C04Z32112   0.710   0.469   9.776
   478G11  C06H32113   0.642   0.439   9.901
   478G11  H00H32114   0.569   0.360   9.903
   478G11  C04Y32115   0.679   0.511  10.018
   478G11  C06G32116   0.613   0.473  10.147
   478G11  O00932117   0.529   0.381  10.160
   478G11  O00832118   0.649   0.544  10.255
   478G11  C04P32119   0.746   0.646  10.252
   478G11  C04J32120   0.782   0.727  10.366
   478G11  C04Q32121   0.734   0.723  10.498
   478G11  H00E32122   0.653   0.656  10.519
   478G11  C04M32123   0.797   0.789  10.606
   478G11  C04R32124   0.764   0.770  10.745
   478G11  H00F32125   0.691   0.695  10.770
   478G11  C04S32126   0.815   0.847  10.843
   478G11  H00G32127   0.784   0.839  10.945
   478G11  O00732128   0.909   0.949  10.817
   478G11  C03V32129   0.955   0.959  10.685
   478G11  C03U32130   1.053   1.055  10.660
   478G11  O00632131   1.102   1.129  10.765
   478G11  C03F32132   1.201   1.211  10.742
   478G11  C03E32133   1.264   1.227  10.615
   478G11  C03D32134   1.211   1.157  10.505
   478G11  C03C32135   1.258   1.181  10.378
   478G11  C03B32136   1.360   1.276  10.372
   478G11  C03A32137   1.416   1.303  10.249
   478G11  C03932138   1.366   1.242  10.129
   478G11  C03832139   1.448   1.304  10.030
   478G11  C03732140   1.536   1.399  10.093
   478G11  C03632141   1.618   1.481  10.025
   478G11  C02R32142   1.718   1.566  10.075
   478G11  C03532143   1.804   1.580   9.961
   478G11  C03R32144   1.761   1.504   9.854
   478G11  C03S32145   1.844   1.447   9.766
   478G11  C04932146   1.794   1.355   9.680
   478G11  C04832147   1.664   1.311   9.712
   478G11  C03P32148   1.584   1.344   9.827
   478G11  C04732149   1.610   1.237   9.605
   478G11  C04632150   1.483   1.195   9.591
   478G11  C04532151   1.382   1.186   9.684
   478G11  C03T32152   1.372   1.221   9.817
   478G11  C04432153   1.254   1.163   9.871
   478G11  C04332154   1.179   1.116   9.762
   478G11  C04232155   1.113   0.999   9.803
   478G11  C04132156   1.119   1.010   9.953
   478G11  C04032157   1.052   0.925  10.044
   478G11  C03Z32158   1.039   0.937  10.188
   478G11  C04H32159   0.945   0.837  10.230
   478G11  C04G32160   0.909   0.766  10.116
   478G11  C03N32161   1.097   1.023  10.292
   478G11  C03Y32162   1.044   1.002  10.423
   478G11  C03X32163   0.940   0.908  10.448
   478G11  C04F32164   0.970   0.813  10.004
   478G11  C04E32165   0.921   0.756   9.882
   478G11  C04O32166   0.838   0.642   9.885
   478G11  C04D32167   0.970   0.796   9.752
   478G11  C04V32168   0.938   0.717   9.643
   478G11  C04W32169   0.860   0.601   9.648
   478G11  C04C32170   1.066   0.895   9.716
   478G11  C04L32171   1.075   0.881   9.570
   478G11  C04U32172   1.140   0.976   9.476
   478G11  C05Q32173   1.187   0.936   9.346
   478G11  C05P32174   1.304   1.011   9.322
   478G11  C04T32175   1.347   1.083   9.435
   478G11  C04B32176   1.241   1.068   9.527
   478G11  C03M32177   1.207   1.113   9.998
   478G11  C04A32178   1.265   1.117   9.654
   478G11  C05H32179   1.468   1.144   9.469
   478G11  C05G32180   1.588   1.161   9.392
   478G11  C05F32181   1.611   1.117   9.261
   478G11  C05E32182   1.746   1.088   9.212
   478G11  C05L32183   1.884   1.111   9.249
   478G11  C05K32184   1.920   1.184   9.364
   478G11  C05J32185   1.834   1.241   9.467
   478G11  C06632186   2.051   1.220   9.374
   478G11  C06532187   2.150   1.170   9.283
   478G11  C06432188   2.114   1.082   9.177
   478G11  C06N32189   2.283   1.203   9.295
   478G11  C06932190   2.331   1.281   9.403
   478G11  C06P32191   2.468   1.305   9.420
   478G11  C06R32192   2.512   1.370   9.536
   478G11  C06B32193   2.424   1.424   9.625
   478G11  C06S32194   2.474   1.497   9.734
   478G11  C02G32195   2.382   1.554   9.823
   478G11  C02F32196   2.431   1.623   9.934
   478G11  C02732197   2.565   1.635   9.960
   478G11  C02632198   2.606   1.697  10.075
   478G11  C00E32199   2.738   1.691  10.109
   478G11  C00D32200   2.776   1.742  10.229
   478G11  C00C32201   2.908   1.732  10.260
   478G11  C00B32202   3.010   1.669  10.185
   478G11  C01532203   2.967   1.620  10.065
   478G11  C07F32204   3.055   1.559   9.981
   478G11  C07E32205   3.012   1.499   9.859
   478G11  C06W32206   2.879   1.505   9.828
   478G11  C06V32207   2.789   1.571   9.909
   478G11  C06X32208   2.836   1.446   9.707
   478G11  C07B32209   2.926   1.387   9.616
   478G11  C07C32210   3.057   1.377   9.658
   478G11  C0FU32211   3.147   1.316   9.580
   478G11  C0F732212   3.281   1.316   9.610
   478G11  C0F632213   3.371   1.253   9.525
   478G11  C0F832214   3.507   1.272   9.554
   478G11  C0F932215   3.599   1.225   9.461
   478G11  C0FA32216   3.734   1.249   9.480
   478G11  C0FZ32217   3.777   1.308   9.601
   478G11  C0G032218   3.915   1.316   9.628
   478G11  C0GD32219   4.006   1.317   9.521
   478G11  C0FC32220   3.965   1.266   9.399
   478G11  C0GH32221   4.051   1.253   9.287
   478G11  C0EY32222   4.010   1.196   9.165
   478G11  C0EX32223   4.100   1.183   9.056
   478G11  C0EW32224   4.062   1.113   8.942
   478G11  C0FR32225   4.157   1.094   8.836
   478G11  H01D32226   4.137   1.035   8.748
   478G11  C0FS32227   4.289   1.145   8.846
   478G11  H01C32228   4.368   1.122   8.777
   478G11  C0GJ32229   4.320   1.216   8.956
   478G11  H01N32230   4.416   1.265   8.955
   478G11  C0EV32231   3.932   1.047   8.942
   478G11  C0FT32232   3.893   0.965   8.837
   478G11  H01E32233   3.964   0.923   8.768
   478G11  C0EU32234   3.843   1.077   9.045
   478G11  C0ET32235   3.707   1.040   9.045
   478G11  C0EI32236   3.606   1.071   9.127
   478G11  C0F132237   3.648   1.134   9.243
   478G11  C0F032238   3.784   1.173   9.257
   478G11  C0EH32239   3.468   1.029   9.105
   478G11  C0EG32240   3.427   0.958   8.986
   478G11  C0EJ32241   3.376   1.077   9.198
   478G11  C0F332242   3.418   1.145   9.313
   478G11  C0EK32243   3.236   1.056   9.167
   478G11  C0EL32244   3.191   0.993   9.045
   478G11  C0EM32245   3.047   1.003   9.034
   478G11  C0EN32246   2.968   1.053   9.138
   478G11  C07I32247   2.840   1.056   9.107
   478G11  C07432248   2.741   1.117   9.184
   478G11  C07332249   2.607   1.106   9.145
   478G11  C07232250   2.513   1.167   9.226
   478G11  C07532251   2.788   1.179   9.299
   478G11  C07632252   2.924   1.178   9.324
   478G11  C07832253   2.967   1.251   9.433
   478G11  C07G32254   2.696   1.248   9.370
   478G11  C07032255   2.742   1.316   9.481
   478G11  C07Z32256   2.816   0.995   8.988
   478G11  C07732257   3.015   1.129   9.241
   478G11  C0EO32258   3.149   1.119   9.263
   478G11  C0F432259   3.191   1.180   9.381
   478G11  C0EQ32260   3.668   0.965   8.934
   478G11  C0FQ32261   4.227   1.235   9.064
   478G11  C0GI32262   4.254   1.309   9.187
   478G11  H01L32263   4.352   1.354   9.184
   478G11  C0EZ32264   3.877   1.154   9.154
   478G11  C0GG32265   4.177   1.308   9.300
   478G11  C0GF32266   4.220   1.365   9.419
   478G11  H01M32267   4.314   1.418   9.419
   478G11  C0GE32268   4.133   1.372   9.525
   478G11  H01K32269   4.167   1.418   9.617
   478G11  O00J32270   3.961   1.335   9.756
   478G11  C0GA32271   3.870   1.369   9.853
   478G11  C0G932272   3.904   1.391   9.980
   478G11  H01H32273   4.007   1.373  10.009
   478G11  C0G832274   3.818   1.426  10.087
   478G11  C0G732275   3.856   1.450  10.227
   478G11  H01I32276   3.962   1.437  10.241
   478G11  O00I32277   3.766   1.485  10.328
   478G11  C0G632278   3.637   1.499  10.282
   478G11  H01J32279   3.556   1.502  10.354
   478G11  C02D32280   3.592   1.489  10.146
   478G11  C02C32281   3.463   1.524  10.101
   478G11  C01732282   3.370   1.584  10.186
   478G11  C01632283   3.235   1.601  10.143
   478G11  O00132284   3.400   1.640  10.307
   478G11  C01832285   3.310   1.676  10.404
   478G11  C00932286   3.173   1.701  10.363
   478G11  C00832287   3.068   1.754  10.444
   478G11  C00732288   3.058   1.802  10.584
   478G11  C00632289   3.157   1.784  10.681
   478G11  C00532290   3.135   1.807  10.824
   478G11  C00432291   3.012   1.844  10.894
   478G11  C00332292   2.868   1.856  10.852
   478G11  C00232293   2.768   1.890  10.949
   478G11  C00P32294   2.632   1.903  10.916
   478G11  C00O32295   2.531   1.915  11.014
   478G11  C00N32296   2.395   1.905  10.980
   478G11  C01032297   2.299   1.916  11.079
   478G11  C01132298   2.162   1.899  11.047
   478G11  C01Q32299   2.063   1.905  11.148
   478G11  C01U32300   2.108   1.925  11.279
   478G11  C01232301   2.244   1.950  11.311
   478G11  H00032302   2.275   1.954  11.415
   478G11  C01V32303   2.006   1.934  11.372
   478G11  H00732304   2.035   1.949  11.474
   478G11  O00532305   1.873   1.929  11.350
   478G11  C01W32306   1.840   1.908  11.218
   478G11  C03132307   1.702   1.905  11.183
   478G11  C03232308   1.657   1.907  11.051
   478G11  H00A32309   1.552   1.916  11.029
   478G11  C03332310   1.756   1.893  10.948
   478G11  H00B32311   1.722   1.902  10.846
   478G11  C01O32312   1.891   1.879  10.979
   478G11  C01N32313   1.989   1.867  10.885
   478G11  C01M32314   1.954   1.835  10.750
   478G11  C01L32315   1.851   1.761  10.670
   478G11  C01K32316   1.894   1.785  10.539
   478G11  C01Y32317   1.851   1.710  10.430
   478G11  C02I32318   1.736   1.636  10.445
   478G11  C02N32319   1.687   1.569  10.326
   478G11  C02M32320   1.582   1.478  10.341
   478G11  C02L32321   1.528   1.447  10.463
   478G11  C02K32322   1.582   1.503  10.579
   478G11  C02U32323   1.532   1.469  10.705
   478G11  C02V32324   1.415   1.389  10.715
   478G11  C03H32325   1.351   1.374  10.841
   478G11  H00C32326   1.381   1.431  10.928
   478G11  C02W32327   1.610   1.492  10.818
   478G11  C02X32328   1.711   1.585  10.804
   478G11  C02Y32329   1.762   1.594  10.935
   478G11  H00832330   1.853   1.645  10.962
   478G11  C02Z32331   1.688   1.503  11.026
   478G11  O00432332   1.699   1.492  11.145
   478G11  O00332333   1.597   1.440  10.945
   478G11  C02J32334   1.690   1.601  10.573
   478G11  C01Z32335   1.932   1.713  10.319
   478G11  C02032336   2.060   1.774  10.317
   478G11  C01I32337   2.108   1.836  10.433
   478G11  C01H32338   2.240   1.863  10.460
   478G11  C00K32339   2.282   1.885  10.588
   478G11  C01S32340   2.186   1.894  10.686
   478G11  C01432341   2.222   1.897  10.818
   478G11  C00J32342   2.418   1.880  10.616
   478G11  C00I32343   2.510   1.859  10.516
   478G11  C00H32344   2.467   1.824  10.386
   478G11  C00G32345   2.560   1.790  10.287
   478G11  C00S32346   2.642   1.852  10.551
   478G11  C00T32347   2.727   1.831  10.445
   478G11  C00U32348   2.859   1.817  10.479
   478G11  C00R32349   2.685   1.865  10.685
   478G11  C00L32350   2.457   1.895  10.751
   478G11  C02832351   2.332   1.828  10.355
   478G11  C02332352   2.288   1.780  10.235
   478G11  C02432353   2.378   1.736  10.140
   478G11  C02132354   2.152   1.750  10.220
   478G11  C02232355   2.109   1.681  10.107
   478G11  C02H32356   2.202   1.646  10.008
   478G11  C03032357   2.155   1.584   9.892
   478G11  C03432358   2.022   1.561   9.878
   478G11  C02P32359   1.974   1.653  10.101
   478G11  C02B32360   1.885   1.655  10.207
   478G11  C01J32361   2.010   1.854  10.532
   478G11  C01X32362   1.756   1.655  10.693
   478G11  C01T32363   2.051   1.873  10.658
   478G11  H00932364   1.622   1.914  11.255
   478G11  C01P32365   1.929   1.892  11.111
   478G11  C01R32366   2.123   1.890  10.915
   478G11  C00Z32367   2.340   1.943  11.209
   478G11  O00032368   2.473   1.953  11.244
   478G11  C00M32369   2.359   1.900  10.849
   478G11  C00Y32370   2.564   1.942  11.147
   478G11  C01332371   2.698   1.932  11.182
   478G11  H00132372   2.728   1.931  11.285
   478G11  C00Q32373   2.593   1.887  10.784
   478G11  C00132374   2.803   1.911  11.087
   478G11  C00032375   2.937   1.901  11.117
   478G11  H00632376   2.963   1.907  11.222
   478G11  C00W32377   2.824   1.851  10.718
   478G11  C01G32378   3.036   1.876  11.026
   478G11  H00532379   3.133   1.864  11.072
   478G11  C01C32380   3.264   1.785  10.884
   478G11  H00232381   3.294   1.789  10.988
   478G11  C01B32382   3.348   1.729  10.777
   478G11  C01D32383   3.484   1.683  10.790
   478G11  H00332384   3.532   1.670  10.886
   478G11  C01E32385   3.544   1.649  10.679
   478G11  H00432386   3.639   1.599  10.688
   478G11  O00232387   3.492   1.656  10.551
   478G11  C01A32388   3.287   1.739  10.647
   478G11  C00V32389   2.919   1.826  10.607
   478G11  C01932390   3.361   1.696  10.535
   478G11  C02E32391   3.419   1.486   9.975
   478G11  C0FX32392   3.511   1.429   9.888
   478G11  C0FW32393   3.462   1.375   9.765
   478G11  C0GB32394   3.643   1.420   9.925
   478G11  C0G332395   3.283   1.492   9.933
   478G11  C07H32396   3.237   1.431   9.811
   478G11  C0GC32397   3.685   1.447  10.054
   478G11  C0G232398   3.730   1.371   9.827
   478G11  C0G132399   3.687   1.337   9.700
   478G11  C0FB32400   3.829   1.231   9.377
   478G11  C0F232401   3.555   1.163   9.341
   478G11  C0FY32402   3.551   1.323   9.676
   478G11  C0F532403   3.326   1.192   9.405
   478G11  C0FV32404   3.329   1.373   9.728
   478G11  C07932405   3.103   1.251   9.468
   478G11  C07A32406   2.879   1.317   9.508
   478G11  C06Y32407   2.704   1.444   9.676
   478G11  C07D32408   3.103   1.439   9.775
   478G11  C01F32409   3.191   1.555  10.020
   478G11  C00A32410   3.141   1.657  10.230
   478G11  C00X32411   2.946   1.773  10.388
   478G11  C00F32412   2.689   1.789  10.320
   478G11  C02932413   2.829   1.629  10.029
   478G11  C02532414   2.513   1.749  10.163
   478G11  C06U32415   2.656   1.575   9.875
   478G11  C02A32416   2.338   1.668  10.027
   478G11  C05Y32417   2.245   1.530   9.801
   478G11  C05Z32418   2.199   1.460   9.690
   478G11  C06032419   2.064   1.434   9.673
   478G11  C06232420   2.014   1.346   9.577
   478G11  C06T32421   2.608   1.506   9.760
   478G11  C06A32422   2.290   1.407   9.602
   478G11  C06Z32423   2.650   1.380   9.563
   478G11  C06Q32424   2.560   1.247   9.333
   478G11  C06832425   2.242   1.327   9.495
   478G11  C06732426   2.102   1.302   9.479
   478G11  C06332427   1.979   1.054   9.159
   478G11  C06C32428   1.946   0.972   9.049
   478G11  C06D32429   1.818   0.930   9.028
   478G11  C06E32430   1.772   0.838   8.935
   478G11  C07Q32431   1.867   0.781   8.858
   478G11  C07P32432   2.002   0.813   8.874
   478G11  C07T32433   2.099   0.760   8.790
   478G11  C07U32434   2.229   0.803   8.799
   478G11  C07V32435   2.323   0.741   8.722
   478G11  C08432436   2.294   0.637   8.635
   478G11  C08C32437   2.160   0.592   8.631
   478G11  C08B32438   2.119   0.486   8.551
   478G11  C08A32439   1.987   0.453   8.545
   478G11  C08932440   1.883   0.509   8.618
   478G11  C08832441   1.753   0.462   8.607
   478G11  C08732442   1.655   0.517   8.692
   478G11  C08632443   1.696   0.618   8.783
   478G11  C08X32444   1.719   0.356   8.523
   478G11  C08T32445   1.832   0.281   8.463
   478G11  C08D32446   1.928   0.614   8.700
   478G11  C08U32447   1.953   0.341   8.477
   478G11  C08V32448   2.050   0.265   8.415
   478G11  C0CY32449   2.182   0.303   8.408
   478G11  C0CX32450   2.271   0.213   8.360
   478G11  C0CW32451   2.408   0.241   8.371
   478G11  C0CV32452   2.441   0.358   8.435
   478G11  C0D432453   2.345   0.442   8.490
   478G11  C0CU32454   2.575   0.385   8.456
   478G11  C0CT32455   2.675   0.296   8.417
   478G11  C0CS32456   2.637   0.172   8.360
   478G11  C0D632457   2.603   0.502   8.526
   478G11  C0EC32458   2.511   0.591   8.579
   478G11  C07X32459   2.548   0.707   8.653
   478G11  C0DL32460   2.731   0.536   8.533
   478G11  C0DK32461   2.769   0.657   8.588
   478G11  C0DN32462   2.902   0.653   8.591
   478G11  C0D832463   2.839   0.453   8.504
   478G11  C08W32464   1.997   0.149   8.369
   478G11  C0CQ32465   2.087   0.056   8.302
   478G11  C09332466   2.215   0.409   8.482
   478G11  C09232467   2.382   0.558   8.562
   478G11  C08532468   2.061   0.661   8.708
   478G11  C07S32469   1.830   0.668   8.781
   478G11  C06F32470   1.640   0.787   8.935
   478G11  C07O32471   2.040   0.912   8.965
   478G11  C07N32472   2.172   0.948   8.980
   478G11  C05D32473   1.723   0.998   9.103
   478G11  C05C32474   1.591   0.969   9.082
   478G11  C05N32475   1.526   1.025   9.192
   478G11  C05M32476   1.685   1.215   9.479
   478G11  C05I32477   1.880   1.312   9.577
   478G11  C06132478   1.976   1.482   9.774
   478G11  C02Q32479   1.936   1.602   9.979
   478G11  C02O32480   1.763   1.590  10.209
   478G11  C03Q32481   1.645   1.447   9.895
   478G11  C03O32482   1.470   1.282   9.888
   478G11  C03L32483   1.250   1.149  10.131
   478G11  C02S32484   1.520   1.405  10.230
   478G11  C02T32485   1.427   1.343  10.480
   478G11  C03K32486   1.201   1.116  10.264
   478G11  C03I32487   1.366   1.320  10.601
   478G11  C03G32488   1.246   1.279  10.858
   478G11  H00D32489   1.194   1.265  10.951
   478G11  C03J32490   1.107   1.074  10.530
   478G11  C03W32491   0.897   0.882  10.578
   478G11  C04I32492   0.886   0.823  10.353
   478G11  C04K32493   0.811   0.669  10.131
   478G11  C04N32494   0.777   0.609  10.012
   478G11  C04X32495   0.806   0.570   9.769
   478G11  C05032496   0.845   0.526   9.529
   478G11  C05W32497   1.002   0.762   9.523
   478G11  C05S32498   1.066   0.532   9.110
   478G11  C05R32499   1.140   0.841   9.258
   478G11  C05O32500   1.394   0.974   9.215
   478G11  C05B32501   1.547   0.852   9.009
   478G11  C05A32502   1.248   0.643   9.000
   478G11  C07R32503   1.601   0.677   8.864
   478G11  C08N32504   1.527   0.456   8.699
   478G11  C08M32505   1.493   0.359   8.602
   478G11  C08L32506   1.362   0.311   8.604
   478G11  C09132507   1.187   0.519   9.018
   478G11  C09K32508   1.089   0.188   8.914
   478G11  H00M32509   1.092   0.167   9.020
   478G11  C08K32510   1.275   0.351   8.713
   478G11  C09J32511   1.049   0.109   8.796
   478G11  C09I32512   1.010  -0.013   8.740
   478G11  C09L32513   0.934  -0.123   8.797
   478G11  H00N32514   0.883  -0.127   8.893
   478G11  C09Q32515   0.901  -0.216   8.712
   478G11  H00O32516   0.830  -0.288   8.751
   478G11  O00B32517   0.945  -0.227   8.579
   478G11  C09G32518   1.032  -0.132   8.525
   478G11  C09F32519   1.109  -0.177   8.410
   478G11  O00A32520   1.076  -0.300   8.359
   478G11  C09P32521   1.159  -0.357   8.267
   478G11  H00P32522   1.112  -0.411   8.186
   478G11  C09O32523   1.298  -0.322   8.267
   478G11  C09D32524   1.324  -0.179   8.280
   478G11  C09C32525   1.438  -0.110   8.237
   478G11  C09N32526   1.575  -0.150   8.190
   478G11  C09T32527   1.619  -0.281   8.216
   478G11  C09S32528   1.535  -0.401   8.234
   478G11  C0CP32529   1.629  -0.501   8.241
   478G11  C0CN32530   1.758  -0.464   8.233
   478G11  C0CO32531   1.853  -0.558   8.255
   478G11  H01432532   1.956  -0.533   8.272
   478G11  C0CZ32533   1.809  -0.692   8.248
   478G11  H01532534   1.873  -0.777   8.267
   478G11  C0D032535   1.672  -0.735   8.236
   478G11  C0G532536   1.621  -0.870   8.231
   478G11  H01F32537   1.692  -0.952   8.234
   478G11  C0G432538   1.489  -0.889   8.215
   478G11  H01G32539   1.453  -0.989   8.199
   478G11  O00H32540   1.397  -0.794   8.207
   478G11  C0D232541   1.442  -0.666   8.231
   478G11  C09V32542   1.354  -0.555   8.228
   478G11  H00Q32543   1.248  -0.577   8.227
   478G11  C0D132544   1.579  -0.631   8.245
   478G11  C09R32545   1.396  -0.425   8.244
   478G11  C09H32546   1.051  -0.016   8.600
   478G11  C09E32547   1.223  -0.106   8.356
   478G11  C09B32548   1.449   0.029   8.242
   478G11  C08Z32549   1.324   0.221   8.500
   478G11  C08O32550   1.588   0.316   8.502
   478G11  C09A32551   1.577   0.077   8.211
   478G11  C08S32552   1.859   0.169   8.384
   478G11  C09932553   1.657  -0.031   8.178
   478G11  C09U32554   1.760  -0.319   8.209
   478G11  C0BO32555   2.205  -0.366   8.091
   478G11  C0CL32556   2.042  -0.070   8.243
   478G11  C0D332557   2.223   0.087   8.311
   478G11  C0D532558   2.501   0.143   8.337
   478G11  C0BR32559   2.377  -0.220   8.177
   478G11  C0BQ32560   2.341  -0.340   8.118
   478G11  C0BL32561   2.259  -0.591   8.032
   478G11  C0AF32562   2.441  -0.794   8.009
   478G11  C0BH32563   2.664  -0.520   8.111
   478G11  C0BG32564   2.791  -0.506   8.160
   478G11  C0BD32565   2.840  -0.738   8.108
   478G11  C0AG32566   2.540  -0.887   7.991
   478G11  C0AI32567   2.580  -1.126   7.959
   478G11  C0AV32568   2.716  -1.340   8.044
   478G11  C0BB32569   2.967  -1.073   8.046
   478G11  O00C32570   2.929  -1.413   8.149
   478G11  C0BC32571   3.085  -1.078   8.113
   478G11  C0B932572   2.929  -0.850   8.111
   478G11  O00E32573   3.180  -0.717   8.341
   478G11  C0CA32574   3.229  -0.606   8.391
   478G11  O00F32575   3.336  -0.608   8.445
   478G11  C0BF32576   2.878  -0.618   8.169
   478G11  C0C532577   3.146  -0.492   8.374
   478G11  C0C432578   3.186  -0.372   8.433
   478G11  H01132579   3.274  -0.372   8.496
   478G11  C0C832580   2.829  -0.385   8.214
   478G11  C0C232581   3.101  -0.257   8.410
   478G11  C0C332582   3.131  -0.135   8.472
   478G11  C0DY32583   3.238  -0.106   8.557
   478G11  H01632584   3.312  -0.178   8.592
   478G11  C0DX32585   3.231   0.034   8.591
   478G11  C0DW32586   3.356   0.103   8.591
   478G11  C0BY32587   2.773  -0.155   8.272
   478G11  C0DB32588   3.055  -0.023   8.459
   478G11  C0CC32589   2.729   0.073   8.339
   478G11  C0D732590   2.809   0.321   8.455
   478G11  C0DZ32591   3.107   0.087   8.527
   478G11  C0DM32592   2.955   0.530   8.540
   478G11  C0DQ32593   3.258   0.343   8.601
   478G11  C0DV32594   3.364   0.243   8.608
   478G11  C0E032595   3.495   0.046   8.572
   478G11  C0FO32596   3.761   0.277   8.483
   478G11  C0E332597   3.548  -0.011   8.450
   478G11  H01732598   3.488  -0.053   8.371
   478G11  C0GV32599   3.767   0.249   8.344
   478G11  C0ES32600   3.747   0.413   8.524
   478G11  C0GQ32601   3.872   0.566   8.206
   478G11  C0FJ32602   3.882   0.875   8.420
   478G11  C0ED32603   3.723   0.697   8.577
   478G11  C0ER32604   3.758   0.932   8.834
   478G11  C0EP32605   3.539   0.923   8.906
   478G11  C0E632606   3.509   0.623   8.692
   478G11  C0DE32607   3.213   0.710   8.650
   478G11  C0EA32608   3.291   0.936   8.959
   478G11  C0DF32609   3.104   0.802   8.648
   478G11  C08032610   2.949   0.967   8.940
   478G11  C0DO32611   2.960   0.769   8.648
   478G11  C0DJ32612   2.678   0.740   8.658
   478G11  C07K32613   2.675   0.984   8.944
   478G11  C07W32614   2.458   0.774   8.727
   478G11  C08332615   2.267   0.891   8.894
   478G11  C07J32616   2.577   1.033   9.032
   478G11  C06O32617   2.380   1.150   9.204
   478G11  C06M32618   2.210   1.028   9.088
   488G11  C07132619   5.773   8.260  12.459
   488G11  C07L32620   5.784   8.311  12.590
   488G11  C07M32621   5.858   8.428  12.620
   488G11  C07Y32622   5.856   8.492  12.740
   488G11  C08132623   5.775   8.441  12.844
   488G11  C08232624   5.772   8.515  12.964
   488G11  C0DI32625   5.710   8.481  13.098
   488G11  C0DH32626   5.618   8.388  13.140
   488G11  C0DG32627   5.591   8.393  13.275
   488G11  C0E932628   5.462   8.392  13.335
   488G11  C0E832629   5.482   8.482  13.455
   488G11  C0E732630   5.430   8.474  13.589
   488G11  C0EB32631   5.339   8.371  13.623
   488G11  C0EF32632   5.314   8.314  13.754
   488G11  C0EE32633   5.387   8.300  13.869
   488G11  C0FD32634   5.397   8.174  13.942
   488G11  C0FE32635   5.361   8.050  13.890
   488G11  H01B32636   5.332   8.047  13.787
   488G11  C0FF32637   5.399   7.931  13.954
   488G11  H01A32638   5.377   7.834  13.912
   488G11  C0FG32639   5.468   7.936  14.070
   488G11  H01832640   5.505   7.852  14.127
   488G11  C0FH32641   5.500   8.061  14.131
   488G11  C0FI32642   5.570   8.081  14.256
   488G11  H01932643   5.612   8.006  14.322
   488G11  O00K32644   5.595   8.201  14.309
   488G11  C0FL32645   5.574   8.314  14.240
   488G11  C0FK32646   5.512   8.307  14.117
   488G11  C0FM32647   5.487   8.428  14.052
   488G11  C0FN32648   5.524   8.547  14.114
   488G11  C0FP32649   5.600   8.543  14.229
   488G11  C0GO32650   5.644   8.659  14.289
   488G11  C0GN32651   5.729   8.667  14.402
   488G11  C0GR32652   5.768   8.542  14.469
   488G11  C0GS32653   5.849   8.537  14.580
   488G11  H01Q32654   5.883   8.443  14.622
   488G11  C0GT32655   5.911   8.656  14.620
   488G11  H01O32656   5.984   8.649  14.700
   488G11  C0GU32657   5.880   8.779  14.551
   488G11  H01P32658   5.932   8.867  14.586
   488G11  O00L32659   5.715   8.426  14.414
   488G11  C0GM32660   5.789   8.789  14.443
   488G11  C0GL32661   5.765   8.901  14.365
   488G11  H01R32662   5.818   8.990  14.395
   488G11  C0GK32663   5.666   8.903  14.263
   488G11  C0GP32664   5.626   8.994  14.158
   488G11  C0E232665   5.515   8.928  14.089
   488G11  C0E132666   5.531   8.969  13.953
   488G11  C0DU32667   5.554   8.881  13.843
   488G11  C0DT32668   5.508   8.757  13.822
   488G11  C0E432669   5.474   8.662  13.913
   488G11  C0E532670   5.461   8.540  13.844
   488G11  C0DS32671   5.535   8.684  13.700
   488G11  C0DR32672   5.614   8.751  13.607
   488G11  C0DD32673   5.639   8.706  13.481
   488G11  C0DC32674   5.738   8.803  13.427
   488G11  C0DP32675   5.754   8.915  13.513
   488G11  C0DA32676   5.827   9.048  13.490
   488G11  C0D932677   5.907   9.097  13.371
   488G11  C0CR32678   5.964   9.226  13.370
   488G11  C0C032679   5.944   9.318  13.473
   488G11  C0BZ32680   5.989   9.452  13.478
   488G11  C0C132681   5.967   9.539  13.588
   488G11  C0C732682   6.018   9.671  13.587
   488G11  C0C632683   5.990   9.762  13.686
   488G11  C0C932684   6.041   9.892  13.686
   488G11  C0B832685   5.997   9.986  13.785
   488G11  C0B732686   6.049  10.115  13.797
   488G11  C0B632687   6.016  10.231  13.883
   488G11  C0B532688   5.886  10.263  13.929
   488G11  H00Z32689   5.797  10.202  13.937
   488G11  C0B432690   5.886  10.405  13.944
   488G11  H01032691   5.803  10.472  13.961
   488G11  C0B332692   6.013  10.458  13.910
   488G11  C0AP32693   6.076  10.571  13.824
   488G11  C0AQ32694   6.182  10.502  13.762
   488G11  C0AR32695   6.239  10.556  13.644
   488G11  C0AS32696   6.280  10.458  13.563
   488G11  C0AT32697   6.270  10.320  13.575
   488G11  C0BA32698   6.207  10.271  13.688
   488G11  C0AU32699   6.281  10.240  13.467
   488G11  C0BE32700   6.242  10.108  13.478
   488G11  C0BI32701   6.257  10.023  13.366
   488G11  C0BJ32702   6.320  10.078  13.249
   488G11  C0BK32703   6.342   9.998  13.143
   488G11  C0BW32704   6.313   9.861  13.152
   488G11  C0BV32705   6.247   9.808  13.263
   488G11  C0BU32706   6.197   9.676  13.263
   488G11  C0BX32707   6.116   9.628  13.374
   488G11  C0BT32708   6.219   9.598  13.154
   488G11  C0CD32709   6.166   9.468  13.153
   488G11  C0CB32710   6.086   9.417  13.262
   488G11  C0CE32711   6.187   9.390  13.040
   488G11  C0CK32712   6.268   9.441  12.931
   488G11  C0BS32713   6.320   9.569  12.931
   488G11  C0CJ32714   6.402   9.616  12.829
   488G11  C0BP32715   6.452   9.746  12.832
   488G11  C0CI32716   6.541   9.793  12.735
   488G11  C0CH32717   6.552   9.931  12.721
   488G11  H01232718   6.598   9.968  12.630
   488G11  C0BN32719   6.501  10.023  12.813
   488G11  C0CG32720   6.523  10.157  12.800
   488G11  C0CF32721   6.583  10.213  12.679
   488G11  H01332722   6.614  10.153  12.594
   488G11  O00G32723   6.589  10.351  12.658
   488G11  C0AA32724   6.542  10.429  12.761
   488G11  C0A932725   6.558  10.566  12.740
   488G11  H00U32726   6.599  10.597  12.645
   488G11  C0A832727   6.516  10.658  12.834
   488G11  H00V32728   6.524  10.761  12.803
   488G11  C0A732729   6.459  10.618  12.962
   488G11  C0A632730   6.451  10.472  12.983
   488G11  C0A532731   6.398  10.411  13.101
   488G11  C0A432732   6.369  10.492  13.216
   488G11  C0A332733   6.349  10.629  13.257
   488G11  C0A232734   6.338  10.730  13.162
   488G11  C0A132735   6.335  10.867  13.213
   488G11  C0A032736   6.294  10.940  13.333
   488G11  C09Z32737   6.301  11.078  13.328
   488G11  C09Y32738   6.237  11.160  13.426
   488G11  H00Y32739   6.248  11.267  13.428
   488G11  C09X32740   6.169  11.096  13.533
   488G11  C09W32741   6.108  11.180  13.628
   488G11  H00R32742   6.109  11.287  13.616
   488G11  C0AX32743   6.044  11.123  13.733
   488G11  H00S32744   5.991  11.183  13.805
   488G11  C0AW32745   6.022  10.986  13.739
   488G11  H00T32746   5.962  10.951  13.822
   488G11  C0AN32747   6.098  10.896  13.658
   488G11  C0AO32748   6.119  10.757  13.688
   488G11  C0AM32749   6.166  10.955  13.548
   488G11  C0B232750   6.357  11.157  13.215
   488G11  O00D32751   6.363  11.280  13.198
   488G11  C0B132752   6.409  11.084  13.107
   488G11  H00W32753   6.464  11.128  13.026
   488G11  C0AL32754   6.238  10.874  13.451
   488G11  C0AK32755   6.252  10.741  13.483
   488G11  C0B032756   6.396  10.946  13.112
   488G11  C0AZ32757   6.450  10.864  13.009
   488G11  H00X32758   6.510  10.908  12.931
   488G11  C0AJ32759   6.311  10.644  13.395
   488G11  C0AH32760   6.345  10.424  13.336
   488G11  C0AE32761   6.387  10.274  13.117
   488G11  C0AD32762   6.419  10.188  13.013
   488G11  C0AY32763   6.415  10.730  13.043
   488G11  C0AB32764   6.491  10.383  12.882
   488G11  C0AC32765   6.478  10.243  12.901
   488G11  C0BM32766   6.432   9.968  12.922
   488G11  C0CM32767   6.605   9.697  12.652
   488G11  C09M32768   6.518   9.586  12.615
   488G11  C09832769   6.519   9.557  12.471
   488G11  C08R32770   6.455   9.447  12.398
   488G11  C08Q32771   6.478   9.449  12.261
   488G11  C08P32772   6.481   9.357  12.148
   488G11  C08Y32773   6.560   9.394  12.042
   488G11  C09732774   6.653   9.499  12.061
   488G11  C09632775   6.775   9.470  12.004
   488G11  C09032776   6.744   9.367  11.911
   488G11  C09532777   6.832   9.300  11.818
   488G11  C09432778   6.798   9.211  11.711
   488G11  C08J32779   6.672   9.153  11.685
   488G11  C08I32780   6.700   9.036  11.618
   488G11  C08H32781   6.592   8.944  11.652
   488G11  C08G32782   6.538   8.981  11.782
   488G11  C08F32783   6.457   8.924  11.894
   488G11  C08E32784   6.398   8.796  11.881
   488G11  C05932785   6.417   8.712  11.767
   488G11  C05832786   6.357   8.581  11.767
   488G11  C05732787   6.350   8.494  11.662
   488G11  C05632788   6.420   8.541  11.544
   488G11  C05532789   6.509   8.640  11.547
   488G11  C05432790   6.535   8.683  11.415
   488G11  C05332791   6.448   8.603  11.330
   488G11  C05232792   6.404   8.624  11.195
   488G11  C05132793   6.449   8.742  11.122
   488G11  C05U32794   6.529   8.856  11.170
   488G11  C05T32795   6.551   8.906  11.306
   488G11  C06K32796   6.637   9.014  11.291
   488G11  H00J32797   6.684   9.063  11.376
   488G11  C06L32798   6.646   9.052  11.152
   488G11  H00I32799   6.692   9.138  11.105
   488G11  C05V32800   6.579   8.949  11.084
   488G11  C06J32801   6.559   8.946  10.946
   488G11  H00K32802   6.611   9.016  10.882
   488G11  C05X32803   6.469   8.855  10.895
   488G11  C06I32804   6.427   8.844  10.759
   488G11  H00L32805   6.478   8.905  10.686
   488G11  C04Z32806   6.329   8.753  10.712
   488G11  C06H32807   6.303   8.745  10.569
   488G11  H00H32808   6.374   8.795  10.505
   488G11  C04Y32809   6.205   8.654  10.520
   488G11  C06G32810   6.182   8.646  10.374
   488G11  O00932811   6.247   8.711  10.289
   488G11  O00832812   6.080   8.566  10.332
   488G11  C04P32813   6.002   8.497  10.421
   488G11  C04J32814   5.896   8.400  10.381
   488G11  C04Q32815   5.846   8.378  10.251
   488G11  H00E32816   5.893   8.438  10.174
   488G11  C04M32817   5.748   8.283  10.224
   488G11  C04R32818   5.686   8.260  10.099
   488G11  H00F32819   5.722   8.323  10.019
   488G11  C04S32820   5.584   8.171  10.078
   488G11  H00G32821   5.533   8.161   9.983
   488G11  O00732822   5.538   8.090  10.178
   488G11  C03V32823   5.597   8.100  10.300
   488G11  C03U32824   5.549   8.024  10.396
   488G11  O00632825   5.448   7.941  10.365
   488G11  C03F32826   5.386   7.872  10.466
   488G11  C03E32827   5.432   7.880  10.600
   488G11  C03D32828   5.549   7.955  10.629
   488G11  C03C32829   5.592   7.970  10.764
   488G11  C03B32830   5.514   7.888  10.853
   488G11  C03A32831   5.553   7.892  10.991
   488G11  C03932832   5.667   7.971  11.036
   488G11  C03832833   5.671   7.950  11.177
   488G11  C03732834   5.562   7.865  11.203
   488G11  C03632835   5.541   7.812  11.329
   488G11  C02R32836   5.439   7.732  11.369
   488G11  C03532837   5.470   7.710  11.507
   488G11  C03R32838   5.581   7.789  11.543
   488G11  C03S32839   5.594   7.844  11.666
   488G11  C04932840   5.697   7.937  11.681
   488G11  C04832841   5.762   7.983  11.562
   488G11  C03P32842   5.714   7.953  11.424
   488G11  C04732843   5.874   8.065  11.588
   488G11  C04632844   5.961   8.115  11.492
   488G11  C04532845   5.959   8.112  11.353
   488G11  C03T32846   5.872   8.054  11.265
   488G11  C04432847   5.903   8.104  11.133
   488G11  C04332848   6.032   8.161  11.141
   488G11  C04232849   6.058   8.258  11.043
   488G11  C04132850   5.941   8.236  10.956
   488G11  C04032851   5.926   8.288  10.828
   488G11  C03Z32852   5.840   8.239  10.721
   488G11  C04H32853   5.880   8.325  10.612
   488G11  C04G32854   5.970   8.423  10.653
   488G11  C03N32855   5.742   8.140  10.698
   488G11  C03Y32856   5.698   8.134  10.559
   488G11  C03X32857   5.747   8.216  10.455
   488G11  C04F32858   6.004   8.403  10.783
   488G11  C04E32859   6.115   8.474  10.830
   488G11  C04O32860   6.170   8.569  10.747
   488G11  C04D32861   6.181   8.459  10.955
   488G11  C04V32862   6.276   8.553  11.002
   488G11  C04W32863   6.315   8.666  10.926
   488G11  C04C32864   6.155   8.365  11.055
   488G11  C04L32865   6.249   8.405  11.164
   488G11  C04U32866   6.232   8.357  11.298
   488G11  C05Q32867   6.308   8.398  11.408
   488G11  C05P32868   6.251   8.338  11.521
   488G11  C04T32869   6.147   8.256  11.488
   488G11  C04B32870   6.143   8.263  11.349
   488G11  C03M32871   5.846   8.131  10.999
   488G11  C04A32872   6.053   8.181  11.281
   488G11  C05H32873   6.056   8.182  11.563
   488G11  C05G32874   6.024   8.175  11.701
   488G11  C05F32875   6.105   8.237  11.800
   488G11  C05E32876   6.058   8.264  11.931
   488G11  C05L32877   5.944   8.230  12.007
   488G11  C05K32878   5.843   8.133  11.971
   488G11  C05J32879   5.824   8.072  11.840
   488G11  C06632880   5.753   8.086  12.071
   488G11  C06532881   5.755   8.145  12.201
   488G11  C06432882   5.849   8.249  12.230
   488G11  C06N32883   5.669   8.101  12.302
   488G11  C06932884   5.572   8.002  12.272
   488G11  C06P32885   5.482   7.967  12.370
   488G11  C06R32886   5.364   7.895  12.334
   488G11  C06B32887   5.353   7.843  12.207
   488G11  C06S32888   5.238   7.769  12.174
   488G11  C02G32889   5.226   7.710  12.049
   488G11  C02F32890   5.107   7.647  12.010
   488G11  C02732891   4.996   7.647  12.099
   488G11  C02632892   4.869   7.607  12.049
   488G11  C00E32893   4.759   7.625  12.133
   488G11  C00D32894   4.636   7.603  12.077
   488G11  C00C32895   4.532   7.633  12.159
   488G11  C00B32896   4.535   7.686  12.286
   488G11  C01532897   4.661   7.708  12.340
   488G11  C07F32898   4.672   7.761  12.467
   488G11  C07E32899   4.795   7.790  12.510
   488G11  C06W32900   4.911   7.773  12.430
   488G11  C06V32901   4.897   7.711  12.308
   488G11  C06X32902   5.031   7.818  12.472
   488G11  C07B32903   5.044   7.871  12.602
   488G11  C07C32904   4.935   7.890  12.684
   488G11  C0FU32905   4.948   7.951  12.806
   488G11  C0F732906   4.838   7.969  12.889
   488G11  C0F632907   4.845   8.027  13.012
   488G11  C0F832908   4.735   8.048  13.091
   488G11  C0F932909   4.754   8.098  13.219
   488G11  C0FA32910   4.644   8.113  13.302
   488G11  C0FZ32911   4.519   8.086  13.254
   488G11  C0G032912   4.399   8.121  13.327
   488G11  C0GD32913   4.418   8.158  13.459
   488G11  C0FC32914   4.545   8.165  13.520
   488G11  C0GH32915   4.560   8.183  13.660
   488G11  C0EY32916   4.689   8.193  13.711
   488G11  C0EX32917   4.713   8.202  13.843
   488G11  C0EW32918   4.843   8.203  13.892
   488G11  C0FR32919   4.871   8.194  14.031
   488G11  H01D32920   4.972   8.190  14.070
   488G11  C0FS32921   4.770   8.206  14.118
   488G11  H01C32922   4.785   8.207  14.225
   488G11  C0GJ32923   4.640   8.215  14.074
   488G11  H01N32924   4.553   8.229  14.136
   488G11  C0EV32925   4.951   8.208  13.805
   488G11  C0FT32926   5.086   8.233  13.856
   488G11  H01E32927   5.121   8.255  13.956
   488G11  C0EU32928   4.925   8.198  13.671
   488G11  C0ET32929   5.027   8.207  13.578
   488G11  C0EI32930   5.015   8.199  13.441
   488G11  C0F132931   4.887   8.171  13.399
   488G11  C0F032932   4.776   8.169  13.486
   488G11  C0EH32933   5.129   8.216  13.357
   488G11  C0EG32934   5.247   8.279  13.401
   488G11  C0EJ32935   5.115   8.171  13.230
   488G11  C0F332936   4.987   8.126  13.184
   488G11  C0EK32937   5.224   8.172  13.141
   488G11  C0EL32938   5.346   8.231  13.181
   488G11  C0EM32939   5.442   8.225  13.075
   488G11  C0EN32940   5.425   8.141  12.967
   488G11  C07I32941   5.536   8.160  12.883
   488G11  C07432942   5.524   8.106  12.753
   488G11  C07332943   5.613   8.154  12.657
   488G11  C07232944   5.605   8.103  12.532
   488G11  C07532945   5.414   8.030  12.721
   488G11  C07632946   5.307   8.020  12.808
   488G11  C07832947   5.184   7.967  12.771
   488G11  C07G32948   5.397   7.981  12.590
   488G11  C07032949   5.280   7.913  12.559
   488G11  C07Z32950   5.610   8.276  12.917
   488G11  C07732951   5.308   8.082  12.932
   488G11  C0EO32952   5.208   8.100  13.019
   488G11  C0F432953   5.083   8.051  12.978
   488G11  C0EQ32954   5.149   8.252  13.625
   488G11  C0FQ32955   4.609   8.210  13.932
   488G11  C0GI32956   4.478   8.219  13.884
   488G11  H01L32957   4.393   8.208  13.950
   488G11  C0EZ32958   4.796   8.185  13.620
   488G11  C0GG32959   4.453   8.207  13.743
   488G11  C0GF32960   4.324   8.212  13.680
   488G11  H01M32961   4.241   8.230  13.746
   488G11  C0GE32962   4.305   8.184  13.543
   488G11  H01K32963   4.208   8.178  13.497
   488G11  O00J32964   4.279   8.102  13.275
   488G11  C0GA32965   4.268   8.031  13.156
   488G11  C0G932966   4.142   8.002  13.106
   488G11  H01H32967   4.058   8.041  13.161
   488G11  C0G832968   4.119   7.938  12.982
   488G11  C0G732969   3.989   7.905  12.928
   488G11  H01I32970   3.908   7.921  12.998
   488G11  O00I32971   3.967   7.863  12.799
   488G11  C0G632972   4.086   7.824  12.730
   488G11  H01J32973   4.064   7.766  12.642
   488G11  C02D32974   4.219   7.859  12.772
   488G11  C02C32975   4.331   7.841  12.693
   488G11  C01732976   4.322   7.808  12.558
   488G11  C01632977   4.436   7.766  12.484
   488G11  O00132978   4.200   7.816  12.490
   488G11  C01832979   4.189   7.798  12.357
   488G11  C00932980   4.293   7.743  12.284
   488G11  C00832981   4.287   7.697  12.146
   488G11  C00732982   4.192   7.698  12.039
   488G11  C00632983   4.072   7.769  12.044
   488G11  C00532984   3.987   7.791  11.933
   488G11  C00432985   3.999   7.758  11.796
   488G11  C00332986   4.105   7.691  11.723
   488G11  C00232987   4.095   7.676  11.578
   488G11  C00P32988   4.203   7.621  11.505
   488G11  C00O32989   4.195   7.609  11.365
   488G11  C00N32990   4.300   7.566  11.279
   488G11  C01032991   4.298   7.577  11.141
   488G11  C01132992   4.408   7.542  11.060
   488G11  C01Q32993   4.400   7.554  10.925
   488G11  C01U32994   4.289   7.611  10.864
   488G11  C01232995   4.178   7.647  10.945
   488G11  H00032996   4.083   7.673  10.901
   488G11  C01V32997   4.287   7.619  10.727
   488G11  H00732998   4.189   7.643  10.687
   488G11  O00532999   4.382   7.567  10.635
   488G11  C01W33000   4.490   7.511  10.702
   488G11  C03133001   4.589   7.457  10.621
   488G11  C03233002   4.707   7.411  10.679
   488G11  H00A33003   4.766   7.365  10.601
   488G11  C03333004   4.727   7.415  10.819
   488G11  H00B33005   4.818   7.380  10.863
   488G11  C01O33006   4.623   7.467  10.904
   488G11  C01N33007   4.636   7.483  11.040
   488G11  C01M33008   4.768   7.476  11.110
   488G11  C01L33009   4.904   7.526  11.081
   488G11  C01K33010   4.969   7.503  11.207
   488G11  C01Y33011   5.097   7.557  11.235
   488G11  C02I33012   5.166   7.628  11.133
   488G11  C02N33013   5.289   7.688  11.169
   488G11  C02M33014   5.359   7.754  11.064
   488G11  C02L33015   5.327   7.750  10.928
   488G11  C02K33016   5.199   7.694  10.901
   488G11  C02U33017   5.157   7.706  10.764
   488G11  C02V33018   5.239   7.744  10.661
   488G11  C03H33019   5.193   7.730  10.526
   488G11  H00C33020   5.102   7.681  10.495
   488G11  C02W33021   5.020   7.697  10.743
   488G11  C02X33022   4.940   7.645  10.847
   488G11  C02Y33023   4.810   7.692  10.807
   488G11  H00833024   4.718   7.700  10.863
   488G11  C02Z33025   4.823   7.725  10.663
   488G11  O00433026   4.730   7.748  10.584
   488G11  O00333027   4.951   7.735  10.634
   488G11  C02J33028   5.111   7.641  11.004
   488G11  C01Z33029   5.126   7.563  11.369
   488G11  C02033030   5.030   7.525  11.473
   488G11  C01I33031   4.903   7.479  11.439
   488G11  C01H33032   4.791   7.491  11.518
   488G11  C00K33033   4.663   7.494  11.461
   488G11  C01S33034   4.647   7.490  11.327
   488G11  C01433035   4.525   7.505  11.263
   488G11  C00J33036   4.554   7.515  11.539
   488G11  C00I33037   4.571   7.528  11.676
   488G11  C00H33038   4.700   7.524  11.727
   488G11  C00G33039   4.725   7.547  11.863
   488G11  C00S33040   4.462   7.556  11.753
   488G11  C00T33041   4.491   7.573  11.886
   488G11  C00U33042   4.383   7.604  11.969
   488G11  C00R33043   4.337   7.586  11.699
   488G11  C00L33044   4.428   7.540  11.482
   488G11  C02833045   4.810   7.520  11.647
   488G11  C02333046   4.938   7.545  11.698
   488G11  C02433047   4.959   7.574  11.834
   488G11  C02133048   5.045   7.558  11.606
   488G11  C02233049   5.162   7.607  11.651
   488G11  C02H33050   5.185   7.632  11.787
   488G11  C03033051   5.301   7.691  11.825
   488G11  C03433052   5.402   7.726  11.734
   488G11  C02P33053   5.259   7.629  11.552
   488G11  C02B33054   5.240   7.622  11.411
   488G11  C01J33055   4.881   7.448  11.305
   488G11  C01X33056   4.973   7.601  10.976
   488G11  C01T33057   4.757   7.455  11.247
   488G11  H00933058   4.570   7.444  10.515
   488G11  C01P33059   4.501   7.510  10.847
   488G11  C01R33060   4.526   7.507  11.120
   488G11  C00Z33061   4.181   7.622  11.082
   488G11  O00033062   4.071   7.651  11.156
   488G11  C00M33063   4.414   7.532  11.341
   488G11  C00Y33064   4.083   7.658  11.297
   488G11  C01333065   3.976   7.700  11.368
   488G11  H00133066   3.886   7.720  11.312
   488G11  C00Q33067   4.325   7.584  11.565
   488G11  C00133068   3.974   7.711  11.513
   488G11  C00033069   3.868   7.759  11.585
   488G11  H00633070   3.780   7.793  11.533
   488G11  C00W33071   4.228   7.640  11.778
   488G11  C01G33072   3.880   7.782  11.720
   488G11  H00533073   3.787   7.813  11.765
   488G11  C01C33074   3.869   7.853  11.987
   488G11  H00233075   3.782   7.898  11.941
   488G11  C01B33076   3.887   7.870  12.130
   488G11  C01D33077   3.803   7.936  12.226
   488G11  H00333078   3.709   7.979  12.195
   488G11  C01E33079   3.850   7.951  12.349
   488G11  H00433080   3.787   8.007  12.417
   488G11  O00233081   3.969   7.894  12.396
   488G11  C01A33082   4.011   7.813  12.168
   488G11  C00V33083   4.256   7.650  11.923
   488G11  C01933084   4.055   7.831  12.305
   488G11  C02E33085   4.455   7.877  12.741
   488G11  C0FX33086   4.468   7.924  12.870
   488G11  C0FW33087   4.597   7.956  12.917
   488G11  C0GB33088   4.357   7.943  12.952
   488G11  C0G333089   4.570   7.846  12.665
   488G11  C07H33090   4.696   7.870  12.719
   488G11  C0GC33091   4.233   7.910  12.904
   488G11  C0G233092   4.378   8.005  13.076
   488G11  C0G133093   4.502   8.038  13.120
   488G11  C0FB33094   4.653   8.151  13.437
   488G11  C0F233095   4.875   8.136  13.268
   488G11  C0FY33096   4.611   8.016  13.042
   488G11  C0F533097   4.973   8.070  13.058
   488G11  C0FV33098   4.712   7.929  12.842
   488G11  C07933099   5.073   7.989  12.850
   488G11  C07A33100   5.169   7.915  12.642
   488G11  C06Y33101   5.139   7.824  12.387
   488G11  C07D33102   4.810   7.847  12.639
   488G11  C01F33103   4.559   7.786  12.543
   488G11  C00A33104   4.422   7.729  12.350
   488G11  C00X33105   4.403   7.638  12.099
   488G11  C00F33106   4.617   7.569  11.944
   488G11  C02933107   4.774   7.681  12.263
   488G11  C02533108   4.848   7.574  11.914
   488G11  C06U33109   5.008   7.698  12.226
   488G11  C02A33110   5.083   7.617  11.877
   488G11  C05Y33111   5.323   7.737  11.952
   488G11  C05Z33112   5.434   7.815  11.983
   488G11  C06033113   5.530   7.855  11.886
   488G11  C06233114   5.638   7.942  11.913
   488G11  C06T33115   5.130   7.761  12.264
   488G11  C06A33116   5.451   7.867  12.112
   488G11  C06Z33117   5.264   7.877  12.425
   488G11  C06Q33118   5.497   8.010  12.498
   488G11  C06833119   5.559   7.953  12.141
   488G11  C06733120   5.652   7.994  12.043
   488G11  C06333121   5.945   8.285  12.136
   488G11  C06C33122   6.024   8.402  12.166
   488G11  C06D33123   6.116   8.451  12.084
   488G11  C06E33124   6.189   8.566  12.092
   488G11  C07Q33125   6.160   8.644  12.199
   488G11  C07P33126   6.083   8.589  12.302
   488G11  C07T33127   6.080   8.651  12.423
   488G11  C07U33128   6.006   8.593  12.530
   488G11  C07V33129   5.998   8.663  12.650
   488G11  C08433130   6.066   8.785  12.667
   488G11  C08C33131   6.140   8.838  12.562
   488G11  C08B33132   6.203   8.960  12.577
   488G11  C08A33133   6.267   9.011  12.470
   488G11  C08933134   6.280   8.950  12.350
   488G11  C08833135   6.341   9.019  12.238
   488G11  C08733136   6.362   8.948  12.117
   488G11  C08633137   6.308   8.818  12.107
   488G11  C08X33138   6.388   9.152  12.249
   488G11  C08T33139   6.386   9.209  12.387
   488G11  C08D33140   6.220   8.825  12.338
   488G11  C08U33141   6.330   9.134  12.489
   488G11  C08V33142   6.320   9.199  12.610
   488G11  C0CY33143   6.246   9.152  12.714
   488G11  C0CX33144   6.236   9.234  12.822
   488G11  C0CW33145   6.162   9.185  12.929
   488G11  C0CV33146   6.101   9.061  12.915
   488G11  C0D433147   6.109   8.984  12.797
   488G11  C0CU33148   6.028   9.007  13.021
   488G11  C0CT33149   6.010   9.077  13.143
   488G11  C0CS33150   6.060   9.207  13.145
   488G11  C0D633151   5.969   8.882  12.999
   488G11  C0EC33152   5.980   8.804  12.884
   488G11  C07X33153   5.920   8.680  12.872
   488G11  C0DL33154   5.900   8.828  13.104
   488G11  C0DK33155   5.841   8.702  13.087
   488G11  C0DN33156   5.785   8.681  13.210
   488G11  C0D833157   5.871   8.892  13.227
   488G11  C08W33158   6.384   9.321  12.599
   488G11  C0CQ33159   6.374   9.407  12.715
   488G11  C09333160   6.191   9.030  12.695
   488G11  C09233161   6.057   8.858  12.782
   488G11  C08533162   6.151   8.766  12.445
   488G11  C07S33163   6.231   8.763  12.214
   488G11  C06F33164   6.270   8.620  11.990
   488G11  C07O33165   6.011   8.470  12.286
   488G11  C07N33166   5.929   8.421  12.383
   488G11  C05D33167   6.136   8.374  11.975
   488G11  C05C33168   6.218   8.424  11.875
   488G11  C05N33169   6.204   8.340  11.768
   488G11  C05M33170   5.910   8.095  11.725
   488G11  C05I33171   5.725   7.984  11.809
   488G11  C06133172   5.509   7.804  11.761
   488G11  C02Q33173   5.374   7.686  11.603
   488G11  C02O33174   5.324   7.679  11.312
   488G11  C03Q33175   5.615   7.858  11.432
   488G11  C03O33176   5.760   7.986  11.291
   488G11  C03L33177   5.736   8.060  10.943
   488G11  C02S33178   5.480   7.832  11.093
   488G11  C02T33179   5.401   7.815  10.830
   488G11  C03K33180   5.694   8.064  10.801
   488G11  C03I33181   5.358   7.807  10.698
   488G11  C03G33182   5.270   7.796  10.428
   488G11  H00D33183   5.234   7.780  10.328
   488G11  C03J33184   5.601   8.035  10.528
   488G11  C03W33185   5.704   8.196  10.324
   488G11  C04I33186   5.839   8.318  10.477
   488G11  C04K33187   6.032   8.504  10.556
   488G11  C04N33188   6.132   8.576  10.608
   488G11  C04X33189   6.267   8.665  10.794
   488G11  C05033190   6.414   8.753  10.984
   488G11  C05W33191   6.317   8.532  11.133
   488G11  C05S33192   6.542   8.820  11.425
   488G11  C05R33193   6.401   8.497  11.417
   488G11  C05O33194   6.265   8.383  11.649
   488G11  C05B33195   6.287   8.547  11.877
   488G11  C05A33196   6.484   8.734  11.640
   488G11  C07R33197   6.326   8.747  11.988
   488G11  C08N33198   6.437   9.006  12.010
   488G11  C08M33199   6.471   9.142  12.019
   488G11  C08L33200   6.554   9.191  11.919
   488G11  C09133201   6.537   8.841  11.573
   488G11  C09K33202   6.835   9.004  11.637
   488G11  H00M33203   6.888   8.910  11.633
   488G11  C08K33204   6.581   9.119  11.796
   488G11  C09J33205   6.901   9.131  11.670
   488G11  C09I33206   7.013   9.182  11.747
   488G11  C09L33207   7.150   9.159  11.724
   488G11  H00N33208   7.192   9.086  11.657
   488G11  C09Q33209   7.231   9.230  11.805
   488G11  H00O33210   7.336   9.211  11.787
   488G11  O00B33211   7.193   9.324  11.903
   488G11  C09G33212   7.060   9.361  11.921
   488G11  C09F33213   7.033   9.453  12.025
   488G11  O00A33214   7.148   9.492  12.091
   488G11  C09P33215   7.146   9.584  12.191
   488G11  H00P33216   7.238   9.617  12.238
   488G11  C09O33217   7.023   9.641  12.239
   488G11  C09D33218   6.898   9.600  12.176
   488G11  C09C33219   6.761   9.624  12.226
   488G11  C09N33220   6.712   9.670  12.356
   488G11  C09T33221   6.794   9.691  12.466
   488G11  C09S33222   6.934   9.729  12.460
   488G11  C0CP33223   6.944   9.809  12.574
   488G11  C0CN33224   6.834   9.808  12.660
   488G11  C0CO33225   6.843   9.880  12.782
   488G11  H01433226   6.772   9.895  12.863
   488G11  C0CZ33227   6.966   9.957  12.802
   488G11  H01533228   6.974  10.024  12.887
   488G11  C0D033229   7.071   9.967  12.704
   488G11  C0G533230   7.188  10.048  12.715
   488G11  H01F33231   7.211  10.121  12.792
   488G11  C0G433232   7.284  10.037  12.623
   488G11  H01G33233   7.383  10.077  12.641
   488G11  O00H33234   7.284   9.963  12.514
   488G11  C0D233235   7.175   9.880  12.505
   488G11  C09V33236   7.162   9.794  12.392
   488G11  H00Q33237   7.255   9.788  12.338
   488G11  C0D133238   7.066   9.885  12.591
   488G11  C09R33239   7.039   9.714  12.363
   488G11  C09H33240   6.969   9.291  11.835
   488G11  C09E33241   6.906   9.509  12.060
   488G11  C09B33242   6.646   9.578  12.164
   488G11  C08Z33243   6.615   9.313  11.951
   488G11  C08O33244   6.439   9.220  12.138
   488G11  C09A33245   6.534   9.579  12.247
   488G11  C08S33246   6.424   9.329  12.460
   488G11  C09933247   6.574   9.634  12.368
   488G11  C09U33248   6.732   9.730  12.592
   488G11  C0BO33249   6.400   9.831  12.932
   488G11  C0CL33250   6.429   9.534  12.716
   488G11  C0D333251   6.296   9.360  12.822
   488G11  C0D533252   6.134   9.258  13.039
   488G11  C0BR33253   6.299   9.644  13.046
   488G11  C0BQ33254   6.340   9.777  13.043
   488G11  C0BL33255   6.399  10.050  13.027
   488G11  C0AF33256   6.351  10.213  13.239
   488G11  C0BH33257   6.221   9.888  13.373
   488G11  C0BG33258   6.154   9.843  13.483
   488G11  C0BD33259   6.175  10.061  13.587
   488G11  C0AG33260   6.331  10.286  13.349
   488G11  C0AI33261   6.316  10.508  13.439
   488G11  C0AV33262   6.207  10.687  13.602
   488G11  C0BB33263   6.178  10.367  13.789
   488G11  O00C33264   6.041  10.696  13.786
   488G11  C0BC33265   6.099  10.348  13.900
   488G11  C0B933266   6.141  10.150  13.692
   488G11  O00E33267   5.899   9.950  13.870
   488G11  C0CA33268   5.859   9.824  13.891
   488G11  O00F33269   5.796   9.796  13.995
   488G11  C0BF33270   6.125   9.933  13.588
   488G11  C0C533271   5.901   9.725  13.791
   488G11  C0C433272   5.859   9.595  13.802
   488G11  H01133273   5.800   9.556  13.884
   488G11  C0C833274   6.098   9.716  13.481
   488G11  C0C233275   5.887   9.500  13.694
   488G11  C0C333276   5.848   9.359  13.685
   488G11  C0DY33277   5.775   9.289  13.784
   488G11  H01633278   5.731   9.334  13.872
   488G11  C0DX33279   5.762   9.160  13.733
   488G11  C0DW33280   5.689   9.059  13.808
   488G11  C0BY33281   6.061   9.499  13.373
   488G11  C0DB33282   5.880   9.274  13.588
   488G11  C0CC33283   6.041   9.282  13.263
   488G11  C0D733284   5.931   9.024  13.253
   488G11  C0DZ33285   5.825   9.147  13.596
   488G11  C0DM33286   5.803   8.793  13.300
   488G11  C0DQ33287   5.675   8.876  13.627
   488G11  C0DV33288   5.640   8.942  13.747
   488G11  C0E033289   5.625   9.073  13.938
   488G11  C0FO33290   5.516   8.792  14.127
   488G11  C0E333291   5.701   9.070  14.064
   488G11  H01733292   5.806   9.091  14.079
   488G11  C0GV33293   5.601   8.780  14.237
   488G11  C0ES33294   5.495   8.669  14.053
   488G11  C0GQ33295   5.635   8.426  14.294
   488G11  C0FJ33296   5.468   8.183  14.062
   488G11  C0ED33297   5.444   8.420  13.917
   488G11  C0ER33298   5.182   8.259  13.758
   488G11  C0EP33299   5.238   8.312  13.541
   488G11  C0E633300   5.475   8.557  13.700
   488G11  C0DE33301   5.591   8.580  13.421
   488G11  C0EA33302   5.353   8.300  13.308
   488G11  C0DF33303   5.665   8.498  13.328
   488G11  C08033304   5.561   8.302  13.051
   488G11  C0DO33305   5.725   8.555  13.217
   488G11  C0DJ33306   5.847   8.629  12.973
   488G11  C07K33307   5.700   8.325  12.815
   488G11  C07W33308   5.923   8.615  12.755
   488G11  C08333309   5.929   8.476  12.512
   488G11  C07J33310   5.700   8.260  12.689
   488G11  C06O33311   5.681   8.154  12.431
   488G11  C06M33312   5.853   8.307  12.356
   498G11  C07133313   2.018   1.832  14.791
   498G11  C07L33314   2.159   1.858  14.797
   498G11  C07M33315   2.202   1.990  14.798
   498G11  C07Y33316   2.339   2.020  14.785
   498G11  C08133317   2.437   1.916  14.762
   498G11  C08233318   2.567   1.956  14.732
   498G11  C0DI33319   2.675   1.872  14.680
   498G11  C0DH33320   2.683   1.731  14.665
   498G11  C0DG33321   2.812   1.699  14.599
   498G11  C0E933322   2.918   1.608  14.634
   498G11  C0E833323   3.044   1.682  14.617
   498G11  C0E733324   3.187   1.631  14.625
   498G11  C0EB33325   3.212   1.494  14.670
   498G11  C0EF33326   3.346   1.442  14.710
   498G11  C0EE33327   3.465   1.510  14.748
   498G11  C0FD33328   3.536   1.457  14.863
   498G11  C0FE33329   3.489   1.362  14.958
   498G11  H01B33330   3.387   1.329  14.944
   498G11  C0FF33331   3.560   1.317  15.068
   498G11  H01A33332   3.516   1.256  15.146
   498G11  C0FG33333   3.683   1.374  15.087
   498G11  H01833334   3.730   1.334  15.175
   498G11  C0FH33335   3.731   1.476  15.007
   498G11  C0FI33336   3.852   1.542  15.031
   498G11  H01933337   3.906   1.516  15.121
   498G11  O00K33338   3.908   1.637  14.952
   498G11  C0FL33339   3.836   1.678  14.845
   498G11  C0FK33340   3.711   1.619  14.815
   498G11  C0FM33341   3.650   1.660  14.698
   498G11  C0FN33342   3.714   1.750  14.607
   498G11  C0FP33343   3.840   1.801  14.637
   498G11  C0GO33344   3.902   1.904  14.565
   498G11  C0GN33345   4.024   1.965  14.594
   498G11  C0GR33346   4.084   1.922  14.714
   498G11  C0GS33347   4.203   1.983  14.762
   498G11  H01Q33348   4.255   1.941  14.848
   498G11  C0GT33349   4.241   2.101  14.700
   498G11  H01O33350   4.326   2.157  14.737
   498G11  C0GU33351   4.180   2.144  14.580
   498G11  H01P33352   4.228   2.229  14.534
   498G11  O00L33353   4.025   1.830  14.792
   498G11  C0GM33354   4.074   2.074  14.520
   498G11  C0GL33355   3.995   2.121  14.413
   498G11  H01R33356   4.021   2.219  14.376
   498G11  C0GK33357   3.882   2.053  14.368
   498G11  C0GP33358   3.764   2.074  14.286
   498G11  C0E233359   3.681   1.959  14.284
   498G11  C0E133360   3.544   2.000  14.259
   498G11  C0DU33361   3.439   1.964  14.345
   498G11  C0DT33362   3.420   1.849  14.423
   498G11  C0E433363   3.513   1.780  14.491
   498G11  C0E533364   3.446   1.696  14.580
   498G11  C0DS33365   3.296   1.827  14.487
   498G11  C0DR33366   3.214   1.940  14.506
   498G11  C0DD33367   3.096   1.947  14.578
   498G11  C0DC33368   3.062   2.089  14.578
   498G11  C0DP33369   3.158   2.173  14.514
   498G11  C0DA33370   3.162   2.320  14.506
   498G11  C0D933371   3.073   2.431  14.556
   498G11  C0CR33372   3.105   2.571  14.549
   498G11  C0C033373   3.222   2.621  14.499
   498G11  C0BZ33374   3.264   2.747  14.493
   498G11  C0C133375   3.391   2.779  14.435
   498G11  C0C733376   3.425   2.912  14.425
   498G11  C0C633377   3.555   2.948  14.380
   498G11  C0C933378   3.591   3.083  14.380
   498G11  C0B833379   3.724   3.122  14.351
   498G11  C0B733380   3.770   3.257  14.342
   498G11  C0B633381   3.903   3.310  14.317
   498G11  C0B533382   4.014   3.257  14.386
   498G11  H00Z33383   4.025   3.157  14.425
   498G11  C0B433384   4.103   3.371  14.397
   498G11  H01033385   4.196   3.383  14.452
   498G11  C0B333386   4.041   3.492  14.351
   498G11  C0AP33387   4.020   3.627  14.393
   498G11  C0AQ33388   3.886   3.656  14.361
   498G11  C0AR33389   3.809   3.737  14.452
   498G11  C0AS33390   3.681   3.701  14.469
   498G11  C0AT33391   3.618   3.585  14.422
   498G11  C0BA33392   3.701   3.491  14.367
   498G11  C0AU33393   3.492   3.550  14.464
   498G11  C0BE33394   3.454   3.417  14.454
   498G11  C0BI33395   3.333   3.381  14.512
   498G11  C0BJ33396   3.247   3.478  14.568
   498G11  C0BK33397   3.127   3.442  14.625
   498G11  C0BW33398   3.079   3.313  14.611
   498G11  C0BV33399   3.163   3.214  14.557
   498G11  C0BU33400   3.126   3.079  14.567
   498G11  C0BX33401   3.216   2.982  14.521
   498G11  C0BT33402   3.002   3.048  14.622
   498G11  C0CD33403   2.969   2.913  14.631
   498G11  C0CB33404   3.054   2.812  14.586
   498G11  C0CE33405   2.841   2.884  14.674
   498G11  C0CK33406   2.747   2.984  14.708
   498G11  C0BS33407   2.781   3.121  14.698
   498G11  C0CJ33408   2.690   3.224  14.736
   498G11  C0BP33409   2.736   3.357  14.745
   498G11  C0CI33410   2.648   3.460  14.779
   498G11  C0CH33411   2.708   3.593  14.784
   498G11  H01233412   2.641   3.677  14.790
   498G11  C0BN33413   2.845   3.610  14.776
   498G11  C0CG33414   2.904   3.726  14.818
   498G11  C0CF33415   2.829   3.830  14.894
   498G11  H01333416   2.725   3.815  14.919
   498G11  O00G33417   2.888   3.947  14.935
   498G11  C0AA33418   3.017   3.961  14.923
   498G11  C0A933419   3.078   4.070  14.984
   498G11  H00U33420   3.019   4.131  15.050
   498G11  C0A833421   3.213   4.099  14.965
   498G11  H00V33422   3.239   4.188  15.019
   498G11  C0A733423   3.293   4.020  14.878
   498G11  C0A633424   3.231   3.907  14.815
   498G11  C0A533425   3.294   3.820  14.727
   498G11  C0A433426   3.429   3.838  14.682
   498G11  C0A333427   3.543   3.929  14.709
   498G11  C0A233428   3.550   4.011  14.818
   498G11  C0A133429   3.673   4.063  14.872
   498G11  C0A033430   3.818   4.057  14.840
   498G11  C09Z33431   3.904   4.127  14.927
   498G11  C09Y33432   4.038   4.149  14.894
   498G11  H00Y33433   4.097   4.224  14.946
   498G11  C09X33434   4.094   4.069  14.791
   498G11  C09W33435   4.236   4.080  14.769
   498G11  H00R33436   4.295   4.153  14.823
   498G11  C0AX33437   4.311   3.994  14.688
   498G11  H00S33438   4.419   4.001  14.694
   498G11  C0AW33439   4.225   3.907  14.617
   498G11  H00T33440   4.273   3.838  14.549
   498G11  C0AN33441   4.084   3.894  14.631
   498G11  C0AO33442   4.014   3.810  14.545
   498G11  C0AM33443   4.022   3.982  14.723
   498G11  C0B233444   3.864   4.201  15.047
   498G11  O00D33445   3.939   4.246  15.128
   498G11  C0B133446   3.724   4.217  15.065
   498G11  H00W33447   3.696   4.290  15.140
   498G11  C0AL33448   3.877   3.980  14.735
   498G11  C0AK33449   3.808   3.900  14.638
   498G11  C0B033450   3.636   4.140  14.978
   498G11  C0AZ33451   3.492   4.138  14.994
   498G11  H00X33452   3.438   4.188  15.073
   498G11  C0AJ33453   3.661   3.887  14.631
   498G11  C0AH33454   3.482   3.747  14.590
   498G11  C0AE33455   3.234   3.702  14.681
   498G11  C0AD33456   3.106   3.668  14.713
   498G11  C0AY33457   3.432   4.052  14.889
   498G11  C0AB33458   3.094   3.877  14.841
   498G11  C0AC33459   3.033   3.756  14.793
   498G11  C0BM33460   2.923   3.510  14.725
   498G11  C0CM33461   2.510   3.433  14.798
   498G11  C09M33462   2.458   3.300  14.770
   498G11  C09833463   2.320   3.283  14.733
   498G11  C08R33464   2.231   3.174  14.741
   498G11  C08Q33465   2.101   3.202  14.690
   498G11  C08P33466   1.964   3.156  14.708
   498G11  C08Y33467   1.859   3.248  14.685
   498G11  C09733468   1.892   3.385  14.688
   498G11  C09633469   1.807   3.452  14.775
   498G11  C09033470   1.690   3.373  14.772
   498G11  C09533471   1.574   3.400  14.847
   498G11  C09433472   1.460   3.320  14.836
   498G11  C08J33473   1.445   3.184  14.815
   498G11  C08I33474   1.342   3.132  14.897
   498G11  C08H33475   1.367   2.988  14.914
   498G11  C08G33476   1.510   2.968  14.878
   498G11  C08F33477   1.598   2.853  14.879
   498G11  C08E33478   1.553   2.719  14.904
   498G11  C05933479   1.421   2.675  14.945
   498G11  C05833480   1.382   2.537  14.956
   498G11  C05733481   1.252   2.481  14.955
   498G11  C05633482   1.149   2.576  14.955
   498G11  C05533483   1.172   2.705  14.983
   498G11  C05433484   1.061   2.779  14.936
   498G11  C05333485   0.976   2.690  14.860
   498G11  C05233486   0.879   2.724  14.757
   498G11  C05133487   0.842   2.857  14.722
   498G11  C05U33488   0.906   2.977  14.766
   498G11  C05T33489   1.030   3.003  14.839
   498G11  C06K33490   1.027   3.143  14.873
   498G11  H00J33491   1.110   3.198  14.915
   498G11  C06L33492   0.908   3.199  14.825
   498G11  H00I33493   0.892   3.301  14.856
   498G11  C05V33494   0.841   3.093  14.753
   498G11  C06J33495   0.721   3.111  14.685
   498G11  H00K33496   0.679   3.210  14.672
   498G11  C05X33497   0.679   3.004  14.602
   498G11  C06I33498   0.582   3.016  14.502
   498G11  H00L33499   0.537   3.113  14.486
   498G11  C04Z33500   0.550   2.910  14.411
   498G11  C06H33501   0.462   2.936  14.298
   498G11  H00H33502   0.420   3.033  14.276
   498G11  C04Y33503   0.446   2.823  14.206
   498G11  C06G33504   0.369   2.845  14.085
   498G11  O00933505   0.331   2.954  14.046
   498G11  O00833506   0.347   2.739  14.003
   498G11  C04P33507   0.390   2.613  14.040
   498G11  C04J33508   0.370   2.493  13.959
   498G11  C04Q33509   0.299   2.488  13.834
   498G11  H00E33510   0.253   2.579  13.799
   498G11  C04M33511   0.278   2.373  13.751
   498G11  C04R33512   0.216   2.364  13.621
   498G11  H00F33513   0.174   2.452  13.575
   498G11  C04S33514   0.209   2.242  13.558
   498G11  H00G33515   0.157   2.246  13.463
   498G11  O00733516   0.269   2.126  13.601
   498G11  C03V33517   0.330   2.136  13.727
   498G11  C03U33518   0.391   2.018  13.775
   498G11  O00633519   0.387   1.912  13.696
   498G11  C03F33520   0.430   1.794  13.742
   498G11  C03E33521   0.505   1.784  13.860
   498G11  C03D33522   0.512   1.896  13.945
   498G11  C03C33523   0.575   1.885  14.075
   498G11  C03B33524   0.620   1.754  14.106
   498G11  C03A33525   0.683   1.734  14.229
   498G11  C03933526   0.708   1.846  14.312
   498G11  C03833527   0.798   1.782  14.414
   498G11  C03733528   0.807   1.648  14.375
   498G11  C03633529   0.884   1.564  14.449
   498G11  C02R33530   0.900   1.430  14.438
   498G11  C03533531   0.996   1.399  14.541
   498G11  C03R33532   1.038   1.515  14.607
   498G11  C03S33533   1.167   1.533  14.653
   498G11  C04933534   1.199   1.659  14.677
   498G11  C04833535   1.102   1.758  14.657
   498G11  C03P33536   0.984   1.745  14.571
   498G11  C04733537   1.123   1.883  14.715
   498G11  C04633538   1.041   1.995  14.730
   498G11  C04533539   0.912   2.025  14.681
   498G11  C03T33540   0.845   1.956  14.574
   498G11  C04433541   0.742   2.046  14.524
   498G11  C04333542   0.739   2.158  14.612
   498G11  C04233543   0.704   2.275  14.536
   498G11  C04133544   0.658   2.221  14.408
   498G11  C04033545   0.612   2.292  14.298
   498G11  C03Z33546   0.553   2.244  14.174
   498G11  C04H33547   0.489   2.358  14.119
   498G11  C04G33548   0.510   2.467  14.198
   498G11  C03N33549   0.534   2.120  14.102
   498G11  C03Y33550   0.461   2.131  13.981
   498G11  C03X33551   0.402   2.248  13.928
   498G11  C04F33552   0.594   2.438  14.300
   498G11  C04E33553   0.617   2.548  14.389
   498G11  C04O33554   0.569   2.680  14.355
   498G11  C04D33555   0.688   2.534  14.515
   498G11  C04V33556   0.738   2.648  14.575
   498G11  C04W33557   0.697   2.774  14.541
   498G11  C04C33558   0.735   2.412  14.581
   498G11  C04L33559   0.820   2.464  14.687
   498G11  C04U33560   0.891   2.385  14.784
   498G11  C05Q33561   1.001   2.435  14.854
   498G11  C05P33562   1.092   2.334  14.880
   498G11  C04T33563   1.041   2.220  14.815
   498G11  C04B33564   0.920   2.248  14.766
   498G11  C03M33565   0.677   2.077  14.393
   498G11  C04A33566   0.851   2.146  14.694
   498G11  C05H33567   1.100   2.096  14.804
   498G11  C05G33568   1.231   2.039  14.836
   498G11  C05F33569   1.330   2.111  14.913
   498G11  C05E33570   1.470   2.089  14.878
   498G11  C05L33571   1.552   1.984  14.824
   498G11  C05K33572   1.498   1.854  14.790
   498G11  C05J33573   1.361   1.817  14.768
   498G11  C06633574   1.598   1.748  14.774
   498G11  C06533575   1.734   1.778  14.785
   498G11  C06433576   1.783   1.906  14.807
   498G11  C06N33577   1.832   1.677  14.762
   498G11  C06933578   1.792   1.548  14.732
   498G11  C06P33579   1.884   1.448  14.714
   498G11  C06R33580   1.846   1.322  14.667
   498G11  C06B33581   1.715   1.297  14.646
   498G11  C06S33582   1.674   1.175  14.588
   498G11  C02G33583   1.544   1.150  14.556
   498G11  C02F33584   1.509   1.035  14.493
   498G11  C02733585   1.602   0.943  14.457
   498G11  C02633586   1.564   0.837  14.374
   498G11  C00E33587   1.662   0.746  14.338
   498G11  C00D33588   1.626   0.640  14.255
   498G11  C00C33589   1.729   0.554  14.215
   498G11  C00B33590   1.859   0.568  14.245
   498G11  C01533591   1.891   0.674  14.324
   498G11  C07F33592   2.024   0.700  14.351
   498G11  C07E33593   2.062   0.810  14.426
   498G11  C06W33594   1.964   0.896  14.473
   498G11  C06V33595   1.830   0.874  14.446
   498G11  C06X33596   2.003   1.016  14.533
   498G11  C07B33597   2.134   1.037  14.564
   498G11  C07C33598   2.233   0.949  14.514
   498G11  C0FU33599   2.369   0.978  14.534
   498G11  C0F733600   2.465   0.886  14.498
   498G11  C0F633601   2.601   0.911  14.518
   498G11  C0F833602   2.697   0.817  14.493
   498G11  C0F933603   2.828   0.842  14.517
   498G11  C0FA33604   2.917   0.741  14.506
   498G11  C0FZ33605   2.878   0.614  14.464
   498G11  C0G033606   2.967   0.511  14.456
   498G11  C0GD33607   3.103   0.525  14.497
   498G11  C0FC33608   3.144   0.652  14.546
   498G11  C0GH33609   3.275   0.674  14.589
   498G11  C0EY33610   3.317   0.802  14.623
   498G11  C0EX33611   3.451   0.828  14.654
   498G11  C0EW33612   3.486   0.960  14.676
   498G11  C0FR33613   3.624   0.984  14.712
   498G11  H01D33614   3.663   1.081  14.742
   498G11  C0FS33615   3.718   0.882  14.721
   498G11  H01C33616   3.820   0.901  14.752
   498G11  C0GJ33617   3.679   0.750  14.696
   498G11  H01N33618   3.751   0.671  14.703
   498G11  C0EV33619   3.398   1.067  14.676
   498G11  C0FT33620   3.441   1.201  14.697
   498G11  H01E33621   3.542   1.231  14.719
   498G11  C0EU33622   3.264   1.037  14.656
   498G11  C0ET33623   3.168   1.138  14.661
   498G11  C0EI33624   3.032   1.121  14.640
   498G11  C0F133625   2.997   0.994  14.599
   498G11  C0F033626   3.087   0.887  14.589
   498G11  C0EH33627   2.942   1.227  14.650
   498G11  C0EG33628   2.989   1.363  14.663
   498G11  C0EJ33629   2.811   1.198  14.633
   498G11  C0F333630   2.771   1.065  14.594
   498G11  C0EK33631   2.715   1.291  14.671
   498G11  C0EL33632   2.751   1.428  14.693
   498G11  C0EM33633   2.640   1.511  14.747
   498G11  C0EN33634   2.517   1.444  14.778
   498G11  C07I33635   2.419   1.542  14.798
   498G11  C07433636   2.281   1.515  14.782
   498G11  C07333637   2.199   1.623  14.787
   498G11  C07233638   2.062   1.603  14.765
   498G11  C07533639   2.243   1.390  14.742
   498G11  C07633640   2.341   1.295  14.709
   498G11  C07833641   2.304   1.179  14.649
   498G11  C07G33642   2.109   1.367  14.719
   498G11  C07033643   2.070   1.247  14.662
   498G11  C07Z33644   2.477   1.669  14.788
   498G11  C07733645   2.476   1.321  14.727
   498G11  C0EO33646   2.577   1.245  14.672
   498G11  C0F433647   2.539   1.124  14.618
   498G11  C0EQ33648   3.212   1.269  14.681
   498G11  C0FQ33649   3.546   0.726  14.667
   498G11  C0GI33650   3.496   0.595  14.639
   498G11  H01L33651   3.561   0.510  14.656
   498G11  C0EZ33652   3.220   0.906  14.625
   498G11  C0GG33653   3.364   0.567  14.594
   498G11  C0GF33654   3.319   0.438  14.560
   498G11  H01M33655   3.381   0.354  14.585
   498G11  C0GE33656   3.192   0.418  14.499
   498G11  H01K33657   3.158   0.319  14.472
   498G11  O00J33658   2.925   0.387  14.408
   498G11  C0GA33659   2.793   0.361  14.362
   498G11  C0G933660   2.753   0.239  14.315
   498G11  H01H33661   2.825   0.158  14.314
   498G11  C0G833662   2.622   0.215  14.271
   498G11  C0G733663   2.566   0.095  14.215
   498G11  H01I33664   2.627   0.007  14.229
   498G11  O00I33665   2.438   0.079  14.169
   498G11  C0G633666   2.360   0.186  14.187
   498G11  H01J33667   2.255   0.174  14.164
   498G11  C02D33668   2.405   0.314  14.237
   498G11  C02C33669   2.321   0.422  14.240
   498G11  C01733670   2.193   0.428  14.177
   498G11  C01633671   2.085   0.505  14.227
   498G11  O00133672   2.162   0.340  14.074
   498G11  C01833673   2.037   0.339  14.018
   498G11  C00933674   1.922   0.395  14.087
   498G11  C00833675   1.780   0.386  14.053
   498G11  C00733676   1.705   0.324  13.942
   498G11  C00633677   1.769   0.269  13.827
   498G11  C00533678   1.700   0.237  13.706
   498G11  C00433679   1.560   0.243  13.667
   498G11  C00333680   1.448   0.316  13.732
   498G11  C00233681   1.322   0.323  13.664
   498G11  C00P33682   1.212   0.399  13.718
   498G11  C00O33683   1.092   0.411  13.646
   498G11  C00N33684   1.001   0.507  13.682
   498G11  C01033685   0.894   0.536  13.599
   498G11  C01133686   0.816   0.651  13.623
   498G11  C01Q33687   0.721   0.686  13.524
   498G11  C01U33688   0.708   0.613  13.405
   498G11  C01233689   0.779   0.493  13.386
   498G11  H00033690   0.770   0.437  13.294
   498G11  C01V33691   0.614   0.665  13.313
   498G11  H00733692   0.598   0.608  13.223
   498G11  O00533693   0.536   0.781  13.326
   498G11  C01W33694   0.545   0.844  13.449
   498G11  C03133695   0.455   0.949  13.479
   498G11  C03233696   0.457   1.006  13.606
   498G11  H00A33697   0.386   1.079  13.643
   498G11  C03333698   0.546   0.965  13.701
   498G11  H00B33699   0.538   1.010  13.798
   498G11  C01O33700   0.650   0.868  13.671
   498G11  C01N33701   0.748   0.831  13.763
   498G11  C01M33702   0.758   0.899  13.895
   498G11  C01L33703   0.737   1.032  13.956
   498G11  C01K33704   0.788   1.027  14.090
   498G11  C01Y33705   0.815   1.138  14.174
   498G11  C02I33706   0.769   1.265  14.130
   498G11  C02N33707   0.792   1.372  14.221
   498G11  C02M33708   0.731   1.495  14.181
   498G11  C02L33709   0.661   1.510  14.062
   498G11  C02K33710   0.659   1.402  13.970
   498G11  C02U33711   0.612   1.430  13.843
   498G11  C02V33712   0.544   1.548  13.815
   498G11  C03H33713   0.469   1.556  13.697
   498G11  H00C33714   0.443   1.473  13.633
   498G11  C02W33715   0.639   1.337  13.737
   498G11  C02X33716   0.700   1.218  13.777
   498G11  C02Y33717   0.751   1.162  13.655
   498G11  H00833718   0.802   1.068  13.648
   498G11  C02Z33719   0.718   1.253  13.549
   498G11  O00433720   0.743   1.235  13.429
   498G11  O00333721   0.662   1.361  13.611
   498G11  C02J33722   0.707   1.276  13.999
   498G11  C01Z33723   0.918   1.119  14.270
   498G11  C02033724   1.002   1.005  14.267
   498G11  C01I33725   0.971   0.899  14.185
   498G11  C01H33726   1.058   0.802  14.151
   498G11  C00K33727   1.041   0.717  14.035
   498G11  C01S33728   0.940   0.741  13.951
   498G11  C01433729   0.929   0.682  13.828
   498G11  C00J33730   1.142   0.630  13.995
   498G11  C00I33731   1.256   0.619  14.068
   498G11  C00H33732   1.281   0.709  14.177
   498G11  C00G33733   1.403   0.715  14.241
   498G11  C00S33734   1.355   0.536  14.022
   498G11  C00T33735   1.467   0.539  14.102
   498G11  C00U33736   1.566   0.449  14.068
   498G11  C00R33737   1.342   0.463  13.902
   498G11  C00L33738   1.125   0.553  13.883
   498G11  C02833739   1.179   0.803  14.217
   498G11  C02333740   1.214   0.902  14.309
   498G11  C02433741   1.342   0.910  14.371
   498G11  C02133742   1.121   0.998  14.342
   498G11  C02233743   1.151   1.101  14.420
   498G11  C02H33744   1.279   1.116  14.476
   498G11  C03033745   1.318   1.229  14.543
   498G11  C03433746   1.227   1.323  14.574
   498G11  C02P33747   1.065   1.204  14.432
   498G11  C02B33748   0.948   1.217  14.355
   498G11  C01J33749   0.848   0.901  14.109
   498G11  C01X33750   0.717   1.163  13.904
   498G11  C01T33751   0.843   0.837  13.987
   498G11  H00933752   0.382   0.984  13.407
   498G11  C01P33753   0.645   0.801  13.547
   498G11  C01R33754   0.830   0.724  13.740
   498G11  C00Z33755   0.876   0.462  13.475
   498G11  O00033756   0.958   0.355  13.449
   498G11  C00M33757   1.016   0.574  13.799
   498G11  C00Y33758   1.069   0.342  13.527
   498G11  C01333759   1.169   0.257  13.484
   498G11  H00133760   1.162   0.207  13.389
   498G11  C00Q33761   1.225   0.469  13.836
   498G11  C00133762   1.297   0.252  13.546
   498G11  C00033763   1.405   0.174  13.496
   498G11  H00633764   1.392   0.111  13.409
   498G11  C00W33765   1.453   0.384  13.856
   498G11  C01G33766   1.528   0.167  13.556
   498G11  H00533767   1.600   0.098  13.514
   498G11  C01C33768   1.799   0.183  13.617
   498G11  H00233769   1.785   0.144  13.518
   498G11  C01B33770   1.926   0.204  13.679
   498G11  C01D33771   2.053   0.182  13.622
   498G11  H00333772   2.059   0.158  13.517
   498G11  C01E33773   2.156   0.200  13.710
   498G11  H00433774   2.255   0.166  13.683
   498G11  O00233775   2.141   0.222  13.839
   498G11  C01A33776   1.910   0.249  13.809
   498G11  C00V33777   1.571   0.375  13.947
   498G11  C01933778   2.021   0.261  13.890
   498G11  C02E33779   2.355   0.534  14.312
   498G11  C0FX33780   2.480   0.548  14.362
   498G11  C0FW33781   2.519   0.666  14.422
   498G11  C0GB33782   2.567   0.444  14.339
   498G11  C0G333783   2.257   0.631  14.339
   498G11  C07H33784   2.293   0.747  14.414
   498G11  C0GC33785   2.532   0.325  14.282
   498G11  C0G233786   2.696   0.465  14.375
   498G11  C0G133787   2.746   0.588  14.426
   498G11  C0FB33788   3.050   0.759  14.548
   498G11  C0F233789   2.863   0.968  14.568
   498G11  C0FY33790   2.653   0.689  14.447
   498G11  C0F533791   2.636   1.035  14.573
   498G11  C0FV33792   2.427   0.771  14.435
   498G11  C07933793   2.403   1.091  14.603
   498G11  C07A33794   2.169   1.154  14.629
   498G11  C06Y33795   1.907   1.104  14.567
   498G11  C07D33796   2.197   0.835  14.456
   498G11  C01F33797   2.121   0.607  14.311
   498G11  C00A33798   1.955   0.487  14.186
   498G11  C00X33799   1.690   0.451  14.131
   498G11  C00F33800   1.497   0.632  14.206
   498G11  C02933801   1.793   0.764  14.365
   498G11  C02533802   1.435   0.817  14.332
   498G11  C06U33803   1.734   0.963  14.481
   498G11  C02A33804   1.377   1.020  14.450
   498G11  C05Y33805   1.448   1.247  14.583
   498G11  C05Z33806   1.487   1.362  14.652
   498G11  C06033807   1.391   1.457  14.674
   498G11  C06233808   1.427   1.583  14.720
   498G11  C06T33809   1.770   1.077  14.547
   498G11  C06A33810   1.620   1.389  14.677
   498G11  C06Z33811   1.937   1.220  14.640
   498G11  C06Q33812   2.018   1.471  14.728
   498G11  C06833813   1.658   1.519  14.722
   498G11  C06733814   1.560   1.618  14.742
   498G11  C06333815   1.690   2.009  14.818
   498G11  C06C33816   1.743   2.141  14.834
   498G11  C06D33817   1.664   2.243  14.874
   498G11  C06E33818   1.700   2.377  14.882
   498G11  C07Q33819   1.833   2.406  14.864
   498G11  C07P33820   1.925   2.296  14.855
   498G11  C07T33821   2.056   2.324  14.834
   498G11  C07U33822   2.151   2.221  14.813
   498G11  C07V33823   2.282   2.254  14.794
   498G11  C08433824   2.324   2.389  14.789
   498G11  C08C33825   2.235   2.484  14.804
   498G11  C08B33826   2.278   2.616  14.805
   498G11  C08A33827   2.185   2.716  14.821
   498G11  C08933828   2.046   2.697  14.838
   498G11  C08833829   1.961   2.805  14.837
   498G11  C08733830   1.824   2.782  14.846
   498G11  C08633831   1.783   2.646  14.859
   498G11  C08X33832   2.010   2.941  14.819
   498G11  C08T33833   2.153   2.963  14.834
   498G11  C08D33834   2.005   2.562  14.832
   498G11  C08U33835   2.230   2.848  14.833
   498G11  C08V33836   2.370   2.876  14.827
   498G11  C0CY33837   2.460   2.778  14.796
   498G11  C0CX33838   2.585   2.817  14.760
   498G11  C0CW33839   2.676   2.715  14.729
   498G11  C0CV33840   2.635   2.583  14.734
   498G11  C0D433841   2.498   2.549  14.757
   498G11  C0CU33842   2.728   2.486  14.700
   498G11  C0CT33843   2.856   2.511  14.657
   498G11  C0CS33844   2.895   2.646  14.648
   498G11  C0D633845   2.683   2.364  14.709
   498G11  C0EC33846   2.549   2.322  14.743
   498G11  C07X33847   2.508   2.189  14.758
   498G11  C0DL33848   2.766   2.260  14.690
   498G11  C0DK33849   2.728   2.127  14.705
   498G11  C0DN33850   2.826   2.056  14.649
   498G11  C0D833851   2.895   2.276  14.635
   498G11  C08W33852   2.388   3.014  14.825
   498G11  C0CQ33853   2.524   3.058  14.778
   498G11  C09333854   2.411   2.648  14.787
   498G11  C09233855   2.456   2.419  14.761
   498G11  C08533856   2.098   2.456  14.825
   498G11  C07S33857   1.872   2.540  14.856
   498G11  C06F33858   1.610   2.481  14.911
   498G11  C07O33859   1.879   2.164  14.842
   498G11  C07N33860   1.971   2.060  14.827
   498G11  C05D33861   1.535   2.206  14.909
   498G11  C05C33862   1.451   2.305  14.952
   498G11  C05N33863   1.323   2.255  14.943
   498G11  C05M33864   1.249   1.911  14.777
   498G11  C05I33865   1.327   1.684  14.732
   498G11  C06133866   1.264   1.434  14.635
   498G11  C02Q33867   1.101   1.305  14.516
   498G11  C02O33868   0.870   1.335  14.335
   498G11  C03Q33869   0.970   1.614  14.539
   498G11  C03O33870   0.877   1.832  14.524
   498G11  C03L33871   0.657   1.978  14.284
   498G11  C02S33872   0.745   1.616  14.259
   498G11  C02T33873   0.613   1.640  14.022
   498G11  C03K33874   0.585   1.998  14.153
   498G11  C03I33875   0.553   1.658  13.898
   498G11  C03G33876   0.415   1.677  13.660
   498G11  H00D33877   0.354   1.666  13.572
   498G11  C03J33878   0.454   2.013  13.902
   498G11  C03W33879   0.335   2.253  13.803
   498G11  C04I33880   0.415   2.366  13.997
   498G11  C04K33881   0.457   2.591  14.158
   498G11  C04N33882   0.488   2.699  14.243
   498G11  C04X33883   0.598   2.786  14.439
   498G11  C05033884   0.739   2.878  14.627
   498G11  C05W33885   0.819   2.613  14.683
   498G11  C05S33886   1.119   2.902  14.897
   498G11  C05R33887   1.026   2.565  14.889
   498G11  C05O33888   1.220   2.349  14.925
   498G11  C05B33889   1.482   2.447  14.940
   498G11  C05A33890   1.305   2.757  14.954
   498G11  C07R33891   1.648   2.617  14.892
   498G11  C08N33892   1.737   2.885  14.843
   498G11  C08M33893   1.779   3.018  14.801
   498G11  C08L33894   1.689   3.118  14.793
   498G11  C09133895   1.264   2.889  14.922
   498G11  C09K33896   1.319   3.228  15.002
   498G11  H00M33897   1.295   3.207  15.105
   498G11  C08K33898   1.552   3.091  14.826
   498G11  C09J33899   1.373   3.351  14.943
   498G11  C09I33900   1.413   3.480  14.989
   498G11  C09L33901   1.348   3.578  15.068
   498G11  H00N33902   1.243   3.564  15.090
   498G11  C09Q33903   1.422   3.693  15.087
   498G11  H00O33904   1.371   3.775  15.135
   498G11  O00B33905   1.549   3.715  15.046
   498G11  C09G33906   1.622   3.621  14.970
   498G11  C09F33907   1.748   3.658  14.921
   498G11  O00A33908   1.791   3.782  14.960
   498G11  C09P33909   1.905   3.836  14.909
   498G11  H00P33910   1.909   3.943  14.890
   498G11  C09O33911   2.015   3.753  14.875
   498G11  C09D33912   1.981   3.624  14.822
   498G11  C09C33913   2.065   3.526  14.750
   498G11  C09N33914   2.203   3.511  14.745
   498G11  C09T33915   2.284   3.582  14.833
   498G11  C09S33916   2.254   3.707  14.892
   498G11  C0CP33917   2.370   3.730  14.966
   498G11  C0CN33918   2.468   3.633  14.959
   498G11  C0CO33919   2.581   3.640  15.037
   498G11  H01433920   2.660   3.566  15.036
   498G11  C0CZ33921   2.587   3.757  15.119
   498G11  H01533922   2.676   3.772  15.179
   498G11  C0D033923   2.492   3.861  15.122
   498G11  C0G533924   2.506   3.987  15.199
   498G11  H01F33925   2.584   4.003  15.271
   498G11  C0G433926   2.413   4.086  15.173
   498G11  H01G33927   2.413   4.177  15.232
   498G11  O00H33928   2.309   4.073  15.084
   498G11  C0D233929   2.292   3.955  15.023
   498G11  C09V33930   2.173   3.931  14.950
   498G11  H00Q33931   2.105   4.016  14.947
   498G11  C0D133932   2.384   3.850  15.037
   498G11  C09R33933   2.149   3.801  14.893
   498G11  C09H33934   1.548   3.503  14.942
   498G11  C09E33935   1.840   3.576  14.836
   498G11  C09B33936   2.019   3.420  14.680
   498G11  C08Z33937   1.741   3.246  14.753
   498G11  C08O33938   1.921   3.039  14.778
   498G11  C09A33939   2.115   3.329  14.631
   498G11  C08S33940   2.255   3.071  14.822
   498G11  C09933941   2.236   3.385  14.681
   498G11  C09U33942   2.426   3.540  14.856
   498G11  C0BO33943   2.872   3.385  14.708
   498G11  C0CL33944   2.557   3.195  14.766
   498G11  C0D333945   2.620   2.954  14.750
   498G11  C0D533946   2.802   2.748  14.682
   498G11  C0BR33947   2.913   3.148  14.661
   498G11  C0BQ33948   2.954   3.279  14.663
   498G11  C0BL33949   3.055   3.538  14.686
   498G11  C0AF33950   3.299   3.606  14.597
   498G11  C0BH33951   3.287   3.250  14.505
   498G11  C0BG33952   3.372   3.149  14.457
   498G11  C0BD33953   3.538   3.317  14.402
   498G11  C0AG33954   3.420   3.630  14.546
   498G11  C0AI33955   3.608   3.779  14.554
   498G11  C0AV33956   3.875   3.819  14.543
   498G11  C0BB33957   3.826   3.531  14.314
   498G11  O00C33958   4.086   3.711  14.478
   498G11  C0BC33959   3.927   3.446  14.286
   498G11  C0B933960   3.668   3.357  14.360
   498G11  O00E33961   3.816   3.024  14.316
   498G11  C0CA33962   3.784   2.890  14.308
   498G11  O00F33963   3.870   2.817  14.260
   498G11  C0BF33964   3.503   3.183  14.409
   498G11  C0C533965   3.649   2.853  14.344
   498G11  C0C433966   3.604   2.712  14.337
   498G11  H01133967   3.673   2.638  14.299
   498G11  C0C833968   3.337   3.015  14.464
   498G11  C0C233969   3.477   2.683  14.389
   498G11  C0C333970   3.424   2.550  14.388
   498G11  C0DY33971   3.478   2.436  14.323
   498G11  H01633972   3.569   2.429  14.265
   498G11  C0DX33973   3.387   2.330  14.359
   498G11  C0DW33974   3.418   2.198  14.321
   498G11  C0BY33975   3.174   2.849  14.532
   498G11  C0DB33976   3.306   2.518  14.451
   498G11  C0CC33977   3.018   2.672  14.594
   498G11  C0D733978   2.953   2.407  14.614
   498G11  C0DZ33979   3.278   2.375  14.441
   498G11  C0DM33980   2.934   2.137  14.609
   498G11  C0DQ33981   3.243   2.073  14.458
   498G11  C0DV33982   3.359   2.080  14.372
   498G11  C0E033983   3.543   2.145  14.256
   498G11  C0FO33984   3.723   1.882  14.403
   498G11  C0E333985   3.680   2.188  14.284
   498G11  H01733986   3.710   2.280  14.332
   498G11  C0GV33987   3.846   1.936  14.443
   498G11  C0ES33988   3.650   1.801  14.492
   498G11  C0GQ33989   3.903   1.766  14.758
   498G11  C0FJ33990   3.655   1.521  14.896
   498G11  C0ED33991   3.517   1.620  14.678
   498G11  C0ER33992   3.344   1.302  14.698
   498G11  C0EP33993   3.133   1.377  14.673
   498G11  C0E633994   3.299   1.708  14.567
   498G11  C0DE33995   3.014   1.822  14.585
   498G11  C0EA33996   2.887   1.467  14.664
   498G11  C0DF33997   2.873   1.823  14.574
   498G11  C08033998   2.615   1.650  14.757
   498G11  C0DO33999   2.795   1.922  14.631
   498G11  C0DJ34000   2.600   2.090  14.744
   498G11  C07K34001   2.389   1.783  14.783
   498G11  C07W34002   2.377   2.157  14.781
   498G11  C08334003   2.111   2.090  14.812
   498G11  C07J34004   2.251   1.753  14.791
   498G11  C06O34005   1.966   1.705  14.773
   498G11  C06M34006   1.926   1.934  14.809
   508G11  C07134007   5.052   9.496   6.909
   508G11  C07L34008   5.140   9.513   7.017
   508G11  C07M34009   5.148   9.419   7.118
   508G11  C07Y34010   5.243   9.440   7.222
   508G11  C08134011   5.337   9.544   7.226
   508G11  C08234012   5.427   9.546   7.337
   508G11  C0DI34013   5.537   9.640   7.371
   508G11  C0DH34014   5.586   9.757   7.304
   508G11  C0DG34015   5.710   9.813   7.362
   508G11  C0E934016   5.719   9.954   7.398
   508G11  C0E834017   5.765   9.950   7.547
   508G11  C0E734018   5.804  10.066   7.632
   508G11  C0EB34019   5.821  10.199   7.580
   508G11  C0EF34020   5.850  10.325   7.649
   508G11  C0EE34021   5.819  10.370   7.779
   508G11  C0FD34022   5.763  10.500   7.795
   508G11  C0FE34023   5.711  10.590   7.702
   508G11  H01B34024   5.707  10.557   7.600
   508G11  C0FF34025   5.663  10.717   7.727
   508G11  H01A34026   5.628  10.786   7.651
   508G11  C0FG34027   5.672  10.759   7.861
   508G11  H01834028   5.636  10.856   7.893
   508G11  C0FH34029   5.722  10.675   7.963
   508G11  C0FI34030   5.730  10.716   8.102
   508G11  H01934031   5.690  10.814   8.124
   508G11  O00K34032   5.786  10.643   8.208
   508G11  C0FL34033   5.833  10.518   8.166
   508G11  C0FK34034   5.829  10.469   8.031
   508G11  C0FM34035   5.885  10.338   8.009
   508G11  C0FN34036   5.954  10.268   8.108
   508G11  C0FP34037   5.954  10.320   8.235
   508G11  C0GO34038   6.003  10.255   8.346
   508G11  C0GN34039   5.980  10.290   8.482
   508G11  C0GR34040   5.920  10.413   8.502
   508G11  C0GS34041   5.920  10.470   8.631
   508G11  H01Q34042   5.880  10.570   8.632
   508G11  C0GT34043   5.955  10.394   8.742
   508G11  H01O34044   5.939  10.437   8.839
   508G11  C0GU34045   6.001  10.261   8.719
   508G11  H01P34046   6.032  10.205   8.806
   508G11  O00L34047   5.880  10.488   8.398
   508G11  C0GM34048   6.022  10.213   8.589
   508G11  C0GL34049   6.076  10.079   8.561
   508G11  H01R34050   6.103  10.009   8.639
   508G11  C0GK34051   6.101  10.046   8.423
   508G11  C0GP34052   6.143   9.929   8.353
   508G11  C0E234053   6.151   9.964   8.214
   508G11  C0E134054   6.106   9.852   8.141
   508G11  C0DU34055   6.013   9.850   8.034
   508G11  C0DT34056   5.965   9.948   7.947
   508G11  C0E434057   5.968  10.080   7.971
   508G11  C0E534058   5.896  10.140   7.872
   508G11  C0DS34059   5.885   9.924   7.842
   508G11  C0DR34060   5.831   9.799   7.840
   508G11  C0DD34061   5.754   9.749   7.736
   508G11  C0DC34062   5.714   9.617   7.787
   508G11  C0DP34063   5.766   9.591   7.923
   508G11  C0DA34064   5.744   9.466   8.008
   508G11  C0D934065   5.651   9.343   7.993
   508G11  C0CR34066   5.633   9.251   8.099
   508G11  C0C034067   5.709   9.251   8.216
   508G11  C0BZ34068   5.712   9.158   8.317
   508G11  C0C134069   5.797   9.167   8.426
   508G11  C0C734070   5.782   9.078   8.533
   508G11  C0C634071   5.850   9.098   8.651
   508G11  C0C934072   5.831   9.010   8.756
   508G11  C0B834073   5.886   9.047   8.887
   508G11  C0B734074   5.870   8.959   8.992
   508G11  C0B634075   5.896   8.976   9.140
   508G11  C0B534076   5.876   9.096   9.217
   508G11  H00Z34077   5.886   9.198   9.182
   508G11  C0B434078   5.840   9.049   9.348
   508G11  H01034079   5.790   9.102   9.427
   508G11  C0B334080   5.848   8.908   9.353
   508G11  C0AP34081   5.775   8.799   9.415
   508G11  C0AQ34082   5.778   8.700   9.311
   508G11  C0AR34083   5.670   8.610   9.295
   508G11  C0AS34084   5.651   8.574   9.167
   508G11  C0AT34085   5.700   8.637   9.054
   508G11  C0BA34086   5.788   8.734   9.066
   508G11  C0AU34087   5.647   8.609   8.932
   508G11  C0BE34088   5.664   8.696   8.824
   508G11  C0BI34089   5.585   8.681   8.710
   508G11  C0BJ34090   5.499   8.571   8.699
   508G11  C0BK34091   5.427   8.554   8.581
   508G11  C0BW34092   5.441   8.642   8.477
   508G11  C0BV34093   5.526   8.754   8.489
   508G11  C0BU34094   5.537   8.843   8.382
   508G11  C0BX34095   5.615   8.954   8.399
   508G11  C0BT34096   5.468   8.825   8.265
   508G11  C0CD34097   5.474   8.922   8.169
   508G11  C0CB34098   5.556   9.035   8.182
   508G11  C0CE34099   5.402   8.899   8.052
   508G11  C0CK34100   5.330   8.778   8.032
   508G11  C0BS34101   5.320   8.684   8.134
   508G11  C0CJ34102   5.250   8.562   8.114
   508G11  C0BP34103   5.230   8.476   8.225
   508G11  C0CI34104   5.161   8.355   8.205
   508G11  C0CH34105   5.157   8.269   8.318
   508G11  H01234106   5.121   8.169   8.299
   508G11  C0BN34107   5.204   8.300   8.445
   508G11  C0CG34108   5.171   8.223   8.554
   508G11  C0CF34109   5.089   8.108   8.546
   508G11  H01334110   5.055   8.070   8.450
   508G11  O00G34111   5.043   8.044   8.657
   508G11  C0AA34112   5.090   8.088   8.775
   508G11  C0A934113   5.046   8.015   8.883
   508G11  H00U34114   4.985   7.931   8.856
   508G11  C0A834115   5.093   8.046   9.013
   508G11  H00V34116   5.060   7.972   9.085
   508G11  C0A734117   5.169   8.164   9.034
   508G11  C0A634118   5.229   8.227   8.919
   508G11  C0A534119   5.335   8.321   8.919
   508G11  C0A434120   5.399   8.359   9.044
   508G11  C0A334121   5.376   8.345   9.187
   508G11  C0A234122   5.251   8.309   9.238
   508G11  C0A134123   5.216   8.315   9.380
   508G11  C0A034124   5.262   8.388   9.496
   508G11  C09Z34125   5.184   8.371   9.607
   508G11  C09Y34126   5.209   8.451   9.721
   508G11  H00Y34127   5.154   8.438   9.813
   508G11  C09X34128   5.321   8.538   9.719
   508G11  C09W34129   5.333   8.620   9.835
   508G11  H00R34130   5.262   8.601   9.914
   508G11  C0AX34131   5.432   8.706   9.846
   508G11  H00S34132   5.442   8.769   9.933
   508G11  C0AW34133   5.525   8.718   9.745
   508G11  H00T34134   5.610   8.785   9.750
   508G11  C0AN34135   5.505   8.652   9.622
   508G11  C0AO34136   5.587   8.672   9.507
   508G11  C0AM34137   5.407   8.553   9.611
   508G11  C0B234138   5.078   8.281   9.622
   508G11  O00D34139   5.013   8.270   9.729
   508G11  C0B134140   5.047   8.193   9.513
   508G11  H00W34141   4.971   8.119   9.532
   508G11  C0AL34142   5.380   8.473   9.493
   508G11  C0AK34143   5.475   8.497   9.387
   508G11  C0B034144   5.121   8.216   9.397
   508G11  C0AZ34145   5.105   8.139   9.278
   508G11  H00X34146   5.038   8.056   9.266
   508G11  C0AJ34147   5.465   8.430   9.261
   508G11  C0AH34148   5.510   8.437   9.032
   508G11  C0AE34149   5.382   8.389   8.802
   508G11  C0AD34150   5.317   8.366   8.684
   508G11  C0AY34151   5.175   8.203   9.171
   508G11  C0AB34152   5.182   8.194   8.791
   508G11  C0AC34153   5.221   8.264   8.675
   508G11  C0BM34154   5.273   8.421   8.451
   508G11  C0CM34155   5.106   8.318   8.084
   508G11  C09M34156   5.132   8.393   7.965
   508G11  C09834157   5.117   8.332   7.834
   508G11  C08R34158   5.093   8.398   7.712
   508G11  C08Q34159   5.084   8.315   7.602
   508G11  C08P34160   5.019   8.305   7.472
   508G11  C08Y34161   4.998   8.171   7.421
   508G11  C09734162   4.985   8.070   7.519
   508G11  C09634163   4.885   7.978   7.495
   508G11  C09034164   4.850   8.007   7.356
   508G11  C09534165   4.759   7.936   7.276
   508G11  C09434166   4.731   7.967   7.137
   508G11  C08J34167   4.771   8.079   7.052
   508G11  C08I34168   4.661   8.100   6.965
   508G11  C08H34169   4.652   8.245   6.931
   508G11  C08G34170   4.727   8.313   7.033
   508G11  C08F34171   4.740   8.456   7.077
   508G11  C08E34172   4.675   8.566   7.007
   508G11  C05934173   4.587   8.561   6.897
   508G11  C05834174   4.546   8.677   6.824
   508G11  C05734175   4.479   8.683   6.701
   508G11  C05634176   4.440   8.553   6.651
   508G11  C05534177   4.447   8.445   6.730
   508G11  C05434178   4.435   8.330   6.640
   508G11  C05334179   4.420   8.381   6.506
   508G11  C05234180   4.427   8.314   6.378
   508G11  C05134181   4.462   8.173   6.373
   508G11  C05U34182   4.505   8.090   6.482
   508G11  C05T34183   4.554   8.111   6.619
   508G11  C06K34184   4.589   7.980   6.674
   508G11  H00J34185   4.616   7.955   6.775
   508G11  C06L34186   4.557   7.879   6.579
   508G11  H00I34187   4.559   7.772   6.595
   508G11  C05V34188   4.509   7.951   6.465
   508G11  C06J34189   4.491   7.880   6.348
   508G11  H00K34190   4.509   7.774   6.344
   508G11  C05X34191   4.477   7.958   6.233
   508G11  C06I34192   4.487   7.907   6.102
   508G11  H00L34193   4.510   7.803   6.084
   508G11  C04Z34194   4.475   7.984   5.986
   508G11  C06H34195   4.492   7.918   5.860
   508G11  H00H34196   4.500   7.810   5.854
   508G11  C04Y34197   4.482   8.002   5.743
   508G11  C06G34198   4.505   7.940   5.612
   508G11  O00934199   4.518   7.817   5.586
   508G11  O00834200   4.504   8.020   5.506
   508G11  C04P34201   4.470   8.151   5.509
   508G11  C04J34202   4.465   8.240   5.396
   508G11  C04Q34203   4.506   8.213   5.261
   508G11  H00E34204   4.529   8.108   5.246
   508G11  C04M34205   4.506   8.309   5.161
   508G11  C04R34206   4.533   8.279   5.024
   508G11  H00F34207   4.560   8.177   5.001
   508G11  C04S34208   4.522   8.373   4.929
   508G11  H00G34209   4.535   8.343   4.827
   508G11  O00734210   4.509   8.503   4.960
   508G11  C03V34211   4.491   8.538   5.096
   508G11  C03U34212   4.488   8.673   5.130
   508G11  O00634213   4.489   8.753   5.028
   508G11  C03F34214   4.514   8.887   5.050
   508G11  C03E34215   4.500   8.936   5.181
   508G11  C03D34216   4.481   8.848   5.286
   508G11  C03C34217   4.467   8.898   5.420
   508G11  C03B34218   4.487   9.037   5.433
   508G11  C03A34219   4.485   9.089   5.562
   508G11  C03934220   4.453   9.007   5.675
   508G11  C03834221   4.469   9.099   5.783
   508G11  C03734222   4.500   9.223   5.717
   508G11  C03634223   4.519   9.337   5.793
   508G11  C02R34224   4.567   9.456   5.749
   508G11  C03534225   4.609   9.518   5.870
   508G11  C03R34226   4.572   9.446   5.981
   508G11  C03S34227   4.633   9.458   6.105
   508G11  C04934228   4.619   9.359   6.189
   508G11  C04834229   4.544   9.245   6.144
   508G11  C03P34230   4.497   9.217   6.009
   508G11  C04734231   4.522   9.155   6.251
   508G11  C04634232   4.463   9.026   6.238
   508G11  C04534233   4.412   8.954   6.125
   508G11  C03T34234   4.414   8.980   5.992
   508G11  C04434235   4.378   8.857   5.923
   508G11  C04334236   4.327   8.767   6.022
   508G11  C04234237   4.353   8.636   5.975
   508G11  C04134238   4.369   8.652   5.828
   508G11  C04034239   4.391   8.551   5.729
   508G11  C03Z34240   4.414   8.563   5.588
   508G11  C04H34241   4.429   8.429   5.546
   508G11  C04G34242   4.414   8.345   5.652
   508G11  C03N34243   4.426   8.670   5.493
   508G11  C03Y34244   4.462   8.619   5.365
   508G11  C03X34245   4.461   8.475   5.326
   508G11  C04F34246   4.396   8.412   5.768
   508G11  C04E34247   4.403   8.335   5.888
   508G11  C04O34248   4.427   8.197   5.883
   508G11  C04D34249   4.380   8.388   6.018
   508G11  C04V34250   4.411   8.307   6.129
   508G11  C04W34251   4.436   8.170   6.129
   508G11  C04C34252   4.347   8.519   6.061
   508G11  C04L34253   4.358   8.514   6.209
   508G11  C04U34254   4.365   8.624   6.303
   508G11  C05Q34255   4.402   8.628   6.436
   508G11  C05P34256   4.424   8.755   6.482
   508G11  C04T34257   4.419   8.838   6.377
   508G11  C04B34258   4.379   8.762   6.272
   508G11  C03M34259   4.388   8.793   5.789
   508G11  C04A34260   4.367   8.820   6.147
   508G11  C05H34261   4.463   8.970   6.365
   508G11  C05G34262   4.512   9.067   6.457
   508G11  C05F34263   4.534   9.041   6.598
   508G11  C05E34264   4.636   9.104   6.673
   508G11  C05L34265   4.721   9.228   6.671
   508G11  C05K34266   4.726   9.310   6.553
   508G11  C05J34267   4.658   9.290   6.428
   508G11  C06634268   4.805   9.428   6.567
   508G11  C06534269   4.879   9.457   6.687
   508G11  C06434270   4.885   9.363   6.791
   508G11  C06N34271   4.965   9.570   6.696
   508G11  C06934272   4.973   9.656   6.589
   508G11  C06P34273   5.058   9.770   6.594
   508G11  C06R34274   5.069   9.858   6.490
   508G11  C06B34275   4.999   9.839   6.375
   508G11  C06S34276   5.008   9.929   6.272
   508G11  C02G34277   4.937   9.904   6.158
   508G11  C02F34278   4.961   9.988   6.049
   508G11  C02734279   5.054  10.091   6.049
   508G11  C02634280   5.074  10.173   5.941
   508G11  C00E34281   5.172  10.273   5.941
   508G11  C00D34282   5.191  10.351   5.831
   508G11  C00C34283   5.279  10.459   5.843
   508G11  C00B34284   5.353  10.485   5.948
   508G11  C01534285   5.339  10.404   6.059
   508G11  C07F34286   5.403  10.435   6.174
   508G11  C07E34287   5.378  10.346   6.279
   508G11  C06W34288   5.295  10.237   6.276
   508G11  C06V34289   5.216  10.219   6.166
   508G11  C06X34290   5.275  10.152   6.383
   508G11  C07B34291   5.351  10.170   6.498
   508G11  C07C34292   5.440  10.279   6.507
   508G11  C0FU34293   5.514  10.297   6.622
   508G11  C0F734294   5.599  10.409   6.634
   508G11  C0F634295   5.677  10.428   6.750
   508G11  C0F834296   5.748  10.543   6.769
   508G11  C0F934297   5.818  10.561   6.891
   508G11  C0FA34298   5.895  10.677   6.905
   508G11  C0FZ34299   5.900  10.767   6.801
   508G11  C0G034300   5.964  10.889   6.814
   508G11  C0GD34301   6.041  10.918   6.932
   508G11  C0FC34302   6.043  10.819   7.033
   508G11  C0GH34303   6.117  10.843   7.149
   508G11  C0EY34304   6.107  10.749   7.253
   508G11  C0EX34305   6.177  10.772   7.373
   508G11  C0EW34306   6.147  10.690   7.480
   508G11  C0FR34307   6.213  10.703   7.604
   508G11  H01D34308   6.193  10.633   7.684
   508G11  C0FS34309   6.313  10.796   7.623
   508G11  H01C34310   6.366  10.805   7.716
   508G11  C0GJ34311   6.335  10.888   7.518
   508G11  H01N34312   6.406  10.968   7.529
   508G11  C0EV34313   6.051  10.590   7.470
   508G11  C0FT34314   5.993  10.532   7.586
   508G11  H01E34315   6.010  10.561   7.689
   508G11  C0EU34316   5.999  10.559   7.346
   508G11  C0ET34317   5.920  10.447   7.326
   508G11  C0EI34318   5.862  10.403   7.212
   508G11  C0F134319   5.886  10.489   7.106
   508G11  C0F034320   5.967  10.607   7.119
   508G11  C0EH34321   5.789  10.280   7.203
   508G11  C0EG34322   5.783  10.189   7.316
   508G11  C0EJ34323   5.734  10.251   7.082
   508G11  C0F334324   5.740  10.348   6.973
   508G11  C0EK34325   5.653  10.137   7.067
   508G11  C0EL34326   5.645  10.044   7.176
   508G11  C0EM34327   5.558   9.940   7.138
   508G11  C0EN34328   5.481   9.942   7.024
   508G11  C07I34329   5.393   9.840   7.017
   508G11  C07434330   5.297   9.826   6.917
   508G11  C07334331   5.220   9.714   6.918
   508G11  C07234332   5.134   9.696   6.809
   508G11  C07534333   5.305   9.915   6.819
   508G11  C07634334   5.400  10.016   6.819
   508G11  C07834335   5.412  10.100   6.712
   508G11  C07G34336   5.225   9.900   6.710
   508G11  C07034337   5.234   9.986   6.607
   508G11  C07Z34338   5.414   9.751   7.123
   508G11  C07734339   5.488  10.033   6.929
   508G11  C0EO34340   5.581  10.127   6.948
   508G11  C0F434341   5.585  10.221   6.840
   508G11  C0EQ34342   5.893  10.374   7.438
   508G11  C0FQ34343   6.269  10.874   7.389
   508G11  C0GI34344   6.282  10.960   7.281
   508G11  H01L34345   6.350  11.044   7.275
   508G11  C0EZ34346   6.026  10.638   7.239
   508G11  C0GG34347   6.199  10.955   7.165
   508G11  C0GF34348   6.191  11.054   7.064
   508G11  H01M34349   6.253  11.140   7.083
   508G11  C0GE34350   6.117  11.032   6.955
   508G11  H01K34351   6.110  11.109   6.880
   508G11  O00J34352   5.960  10.985   6.715
   508G11  C0GA34353   5.907  10.957   6.597
   508G11  C0G934354   5.908  11.055   6.494
   508G11  H01H34355   5.965  11.144   6.515
   508G11  C0G834356   5.842  11.037   6.372
   508G11  C0G734357   5.850  11.125   6.259
   508G11  H01I34358   5.919  11.208   6.247
   508G11  O00I34359   5.772  11.107   6.148
   508G11  C0G634360   5.713  10.984   6.127
   508G11  H01J34361   5.657  10.976   6.036
   508G11  C02D34362   5.707  10.889   6.230
   508G11  C02C34363   5.644  10.765   6.206
   508G11  C01734364   5.604  10.722   6.074
   508G11  C01634365   5.509  10.618   6.065
   508G11  O00134366   5.650  10.773   5.952
   508G11  C01834367   5.600  10.740   5.828
   508G11  C00934368   5.483  10.664   5.823
   508G11  C00834369   5.398  10.625   5.706
   508G11  C00734370   5.407  10.641   5.562
   508G11  C00634371   5.524  10.697   5.498
   508G11  C00534372   5.549  10.684   5.356
   508G11  C00434373   5.465  10.634   5.247
   508G11  C00334374   5.347  10.548   5.244
   508G11  C00234375   5.294  10.507   5.119
   508G11  C00P34376   5.190  10.406   5.112
   508G11  C00O34377   5.140  10.350   4.996
   508G11  C00N34378   5.060  10.237   4.989
   508G11  C01034379   5.013  10.185   4.871
   508G11  C01134380   4.928  10.075   4.864
   508G11  C01Q34381   4.886  10.023   4.741
   508G11  C01U34382   4.921  10.091   4.621
   508G11  C01234383   4.999  10.207   4.627
   508G11  H00034384   5.034  10.255   4.536
   508G11  C01V34385   4.876  10.033   4.503
   508G11  H00734386   4.899  10.082   4.409
   508G11  O00534387   4.800   9.921   4.487
   508G11  C01W34388   4.768   9.863   4.608
   508G11  C03134389   4.684   9.756   4.593
   508G11  C03234390   4.634   9.692   4.708
   508G11  H00A34391   4.557   9.617   4.692
   508G11  C03334392   4.671   9.738   4.833
   508G11  H00B34393   4.620   9.697   4.919
   508G11  C01O34394   4.767   9.844   4.848
   508G11  C01N34395   4.805   9.892   4.969
   508G11  C01M34396   4.769   9.828   5.099
   508G11  C01L34397   4.705   9.709   5.167
   508G11  C01K34398   4.696   9.740   5.302
   508G11  C01Y34399   4.668   9.659   5.414
   508G11  C02I34400   4.622   9.531   5.387
   508G11  C02N34401   4.586   9.452   5.498
   508G11  C02M34402   4.540   9.319   5.477
   508G11  C02L34403   4.542   9.263   5.349
   508G11  C02K34404   4.587   9.342   5.236
   508G11  C02U34405   4.610   9.283   5.114
   508G11  C02V34406   4.563   9.153   5.091
   508G11  C03H34407   4.565   9.101   4.960
   508G11  H00C34408   4.577   9.158   4.869
   508G11  C02W34409   4.687   9.349   5.021
   508G11  C02X34410   4.722   9.476   5.041
   508G11  C02Y34411   4.823   9.502   4.946
   508G11  H00834412   4.889   9.587   4.931
   508G11  C02Z34413   4.839   9.385   4.862
   508G11  O00434414   4.922   9.372   4.767
   508G11  O00334415   4.768   9.290   4.918
   508G11  C02J34416   4.625   9.477   5.255
   508G11  C01Z34417   4.687   9.719   5.538
   508G11  C02034418   4.750   9.838   5.554
   508G11  C01I34419   4.787   9.915   5.450
   508G11  C01H34420   4.869  10.025   5.454
   508G11  C00K34421   4.918  10.075   5.338
   508G11  C01S34422   4.883  10.026   5.212
   508G11  C01434423   4.927  10.077   5.095
   508G11  C00J34424   5.002  10.184   5.343
   508G11  C00I34425   5.042  10.238   5.462
   508G11  C00H34426   4.998  10.179   5.581
   508G11  C00G34427   5.050  10.211   5.704
   508G11  C00S34428   5.129  10.341   5.469
   508G11  C00T34429   5.163  10.379   5.590
   508G11  C00U34430   5.250  10.486   5.603
   508G11  C00R34431   5.181  10.399   5.352
   508G11  C00L34432   5.048  10.246   5.228
   508G11  C02834433   4.903  10.073   5.577
   508G11  C02334434   4.864  10.007   5.691
   508G11  C02434435   4.920  10.044   5.817
   508G11  C02134436   4.796   9.887   5.678
   508G11  C02234437   4.777   9.812   5.790
   508G11  C02H34438   4.833   9.847   5.911
   508G11  C03034439   4.816   9.762   6.020
   508G11  C03434440   4.741   9.652   6.007
   508G11  C02P34441   4.703   9.699   5.770
   508G11  C02B34442   4.664   9.643   5.647
   508G11  C01J34443   4.751   9.865   5.326
   508G11  C01X34444   4.686   9.562   5.146
   508G11  C01T34445   4.802   9.910   5.207
   508G11  H00934446   4.641   9.727   4.498
   508G11  C01P34447   4.806   9.907   4.732
   508G11  C01R34448   4.883  10.015   4.979
   508G11  C00Z34449   5.049  10.254   4.751
   508G11  O00034450   5.136  10.363   4.755
   508G11  C00M34451   5.007  10.190   5.104
   508G11  C00Y34452   5.184  10.406   4.880
   508G11  C01334453   5.283  10.503   4.876
   508G11  H00134454   5.306  10.554   4.783
   508G11  C00Q34455   5.137  10.355   5.228
   508G11  C00134456   5.343  10.554   4.995
   508G11  C00034457   5.450  10.641   4.998
   508G11  H00634458   5.497  10.662   4.902
   508G11  C00W34459   5.285  10.497   5.360
   508G11  C01G34460   5.508  10.681   5.118
   508G11  H00534461   5.583  10.758   5.118
   508G11  C01C34462   5.689  10.722   5.339
   508G11  H00234463   5.751  10.725   5.251
   508G11  C01B34464   5.734  10.762   5.468
   508G11  C01D34465   5.864  10.814   5.495
   508G11  H00334466   5.941  10.822   5.420
   508G11  C01E34467   5.891  10.850   5.623
   508G11  H00434468   5.991  10.890   5.635
   508G11  O00234469   5.806  10.819   5.729
   508G11  C01A34470   5.637  10.745   5.569
   508G11  C00V34471   5.319  10.548   5.495
   508G11  C01934472   5.681  10.767   5.702
   508G11  C02E34473   5.617  10.686   6.318
   508G11  C0FX34474   5.679  10.708   6.443
   508G11  C0FW34475   5.674  10.616   6.547
   508G11  C0GB34476   5.757  10.825   6.460
   508G11  C0G334477   5.542  10.576   6.301
   508G11  C07H34478   5.527  10.483   6.409
   508G11  C0GC34479   5.767  10.918   6.356
   508G11  C0G234480   5.822  10.846   6.584
   508G11  C0G134481   5.822  10.752   6.683
   508G11  C0FB34482   5.966  10.704   7.021
   508G11  C0F234483   5.819  10.462   6.989
   508G11  C0FY34484   5.755  10.637   6.662
   508G11  C0F534485   5.673  10.329   6.855
   508G11  C0FV34486   5.603  10.502   6.529
   508G11  C07934487   5.506  10.204   6.728
   508G11  C07A34488   5.331  10.084   6.604
   508G11  C06Y34489   5.177  10.052   6.388
   508G11  C07D34490   5.447  10.366   6.397
   508G11  C01F34491   5.485  10.547   6.181
   508G11  C00A34492   5.441  10.597   5.944
   508G11  C00X34493   5.300  10.531   5.729
   508G11  C00F34494   5.131  10.319   5.712
   508G11  C02934495   5.244  10.296   6.055
   508G11  C02534496   5.008  10.148   5.824
   508G11  C06U34497   5.124  10.115   6.164
   508G11  C02A34498   4.900   9.960   5.925
   508G11  C05Y34499   4.858   9.796   6.150
   508G11  C05Z34500   4.839   9.708   6.257
   508G11  C06034501   4.768   9.589   6.240
   508G11  C06234502   4.752   9.493   6.340
   508G11  C06T34503   5.103  10.031   6.273
   508G11  C06A34504   4.910   9.727   6.370
   508G11  C06Z34505   5.153   9.966   6.495
   508G11  C06Q34506   5.135   9.790   6.708
   508G11  C06834507   4.895   9.634   6.473
   508G11  C06734508   4.815   9.520   6.460
   508G11  C06334509   4.802   9.250   6.783
   508G11  C06C34510   4.820   9.154   6.884
   508G11  C06D34511   4.752   9.033   6.881
   508G11  C06E34512   4.777   8.928   6.969
   508G11  C07Q34513   4.858   8.950   7.075
   508G11  C07P34514   4.923   9.075   7.086
   508G11  C07T34515   4.998   9.095   7.197
   508G11  C07U34516   5.079   9.211   7.206
   508G11  C07V34517   5.159   9.231   7.318
   508G11  C08434518   5.158   9.134   7.419
   508G11  C08C34519   5.079   9.020   7.406
   508G11  C08B34520   5.087   8.924   7.500
   508G11  C08A34521   5.021   8.804   7.480
   508G11  C08934522   4.947   8.775   7.374
   508G11  C08834523   4.909   8.643   7.347
   508G11  C08734524   4.849   8.611   7.226
   508G11  C08634525   4.812   8.716   7.143
   508G11  C08X34526   4.954   8.538   7.432
   508G11  C08T34527   4.999   8.576   7.569
   508G11  C08D34528   4.939   8.874   7.278
   508G11  C08U34529   5.042   8.706   7.579
   508G11  C08V34530   5.096   8.737   7.698
   508G11  C0CY34531   5.175   8.848   7.711
   508G11  C0CX34532   5.252   8.860   7.822
   508G11  C0CW34533   5.324   8.977   7.844
   508G11  C0CV34534   5.327   9.068   7.737
   508G11  C0D434535   5.244   9.055   7.626
   508G11  C0CU34536   5.411   9.175   7.751
   508G11  C0CT34537   5.488   9.205   7.865
   508G11  C0CS34538   5.482   9.111   7.970
   508G11  C0D634539   5.407   9.258   7.642
   508G11  C0EC34540   5.335   9.247   7.525
   508G11  C07X34541   5.329   9.345   7.425
   508G11  C0DL34542   5.492   9.364   7.651
   508G11  C0DK34543   5.508   9.447   7.544
   508G11  C0DN34544   5.601   9.538   7.579
   508G11  C0D834545   5.576   9.398   7.761
   508G11  C08W34546   5.107   8.622   7.778
   508G11  C0CQ34547   5.195   8.635   7.895
   508G11  C09334548   5.170   8.943   7.613
   508G11  C09234549   5.242   9.143   7.524
   508G11  C08534550   5.004   8.996   7.293
   508G11  C07S34551   4.865   8.846   7.166
   508G11  C06F34552   4.704   8.809   6.959
   508G11  C07O34553   4.904   9.174   6.991
   508G11  C07N34554   4.979   9.291   7.001
   508G11  C05D34555   4.650   9.023   6.791
   508G11  C05C34556   4.575   8.910   6.784
   508G11  C05N34557   4.507   8.916   6.661
   508G11  C05M34558   4.568   9.179   6.388
   508G11  C05I34559   4.679   9.377   6.321
   508G11  C06134560   4.715   9.568   6.117
   508G11  C02Q34561   4.688   9.630   5.881
   508G11  C02O34562   4.605   9.516   5.625
   508G11  C03Q34563   4.521   9.331   5.930
   508G11  C03O34564   4.460   9.092   5.933
   508G11  C03L34565   4.422   8.865   5.663
   508G11  C02S34566   4.515   9.220   5.584
   508G11  C02T34567   4.516   9.123   5.325
   508G11  C03K34568   4.435   8.809   5.528
   508G11  C03I34569   4.521   9.073   5.200
   508G11  C03G34570   4.539   8.966   4.938
   508G11  H00D34571   4.533   8.931   4.836
   508G11  C03J34572   4.475   8.713   5.263
   508G11  C03W34573   4.487   8.439   5.195
   508G11  C04I34574   4.448   8.377   5.419
   508G11  C04K34575   4.443   8.211   5.638
   508G11  C04N34576   4.448   8.140   5.754
   508G11  C04X34577   4.445   8.118   5.997
   508G11  C05034578   4.458   8.101   6.250
   508G11  C05W34579   4.398   8.380   6.250
   508G11  C05S34580   4.530   8.235   6.691
   508G11  C05R34581   4.410   8.521   6.520
   508G11  C05O34582   4.462   8.790   6.612
   508G11  C05B34583   4.604   8.796   6.861
   508G11  C05A34584   4.545   8.441   6.824
   508G11  C07R34585   4.727   8.696   7.037
   508G11  C08N34586   4.827   8.474   7.188
   508G11  C08M34587   4.884   8.372   7.268
   508G11  C08L34588   4.865   8.238   7.229
   508G11  C09134589   4.588   8.300   6.816
   508G11  C09K34590   4.544   8.021   7.003
   508G11  H00M34591   4.440   8.040   6.982
   508G11  C08K34592   4.797   8.208   7.106
   508G11  C09J34593   4.594   7.936   7.107
   508G11  C09I34594   4.548   7.862   7.221
   508G11  C09L34595   4.428   7.787   7.244
   508G11  H00N34596   4.352   7.789   7.167
   508G11  C09Q34597   4.416   7.722   7.362
   508G11  H00O34598   4.333   7.656   7.383
   508G11  O00B34599   4.512   7.720   7.465
   508G11  C09G34600   4.626   7.797   7.457
   508G11  C09F34601   4.703   7.814   7.582
   508G11  O00A34602   4.652   7.740   7.686
   508G11  C09P34603   4.722   7.758   7.810
   508G11  H00P34604   4.738   7.667   7.867
   508G11  C09O34605   4.789   7.879   7.840
   508G11  C09D34606   4.870   7.934   7.733
   508G11  C09C34607   4.981   8.027   7.745
   508G11  C09N34608   5.036   8.096   7.863
   508G11  C09T34609   4.975   8.108   7.990
   508G11  C09S34610   4.858   8.035   8.030
   508G11  C0CP34611   4.820   8.095   8.154
   508G11  C0CN34612   4.897   8.212   8.182
   508G11  C0CO34613   4.862   8.281   8.300
   508G11  H01434614   4.910   8.370   8.337
   508G11  C0CZ34615   4.751   8.234   8.371
   508G11  H01534616   4.725   8.287   8.462
   508G11  C0D034617   4.666   8.127   8.331
   508G11  C0G534618   4.544   8.071   8.395
   508G11  H01F34619   4.513   8.127   8.482
   508G11  C0G434620   4.473   7.966   8.345
   508G11  H01G34621   4.381   7.942   8.396
   508G11  O00H34622   4.518   7.886   8.241
   508G11  C0D234623   4.626   7.939   8.175
   508G11  C09V34624   4.668   7.879   8.048
   508G11  H00Q34625   4.592   7.808   8.020
   508G11  C0D134626   4.703   8.047   8.220
   508G11  C09R34627   4.775   7.932   7.970
   508G11  C09H34628   4.649   7.857   7.330
   508G11  C09E34629   4.822   7.897   7.595
   508G11  C09B34630   5.042   8.084   7.636
   508G11  C08Z34631   4.896   8.143   7.325
   508G11  C08O34632   4.956   8.403   7.386
   508G11  C09A34633   5.127   8.189   7.662
   508G11  C08S34634   5.044   8.522   7.703
   508G11  C09934635   5.124   8.193   7.802
   508G11  C09U34636   5.005   8.218   8.084
   508G11  C0BO34637   5.293   8.505   8.343
   508G11  C0CL34638   5.200   8.528   7.988
   508G11  C0D334639   5.256   8.760   7.915
   508G11  C0D534640   5.404   8.995   7.955
   508G11  C0BR34641   5.389   8.712   8.250
   508G11  C0BQ34642   5.371   8.624   8.358
   508G11  C0BL34643   5.338   8.450   8.572
   508G11  C0AF34644   5.477   8.484   8.807
   508G11  C0BH34645   5.600   8.770   8.606
   508G11  C0BG34646   5.689   8.874   8.614
   508G11  C0BD34647   5.744   8.809   8.843
   508G11  C0AG34648   5.553   8.509   8.922
   508G11  C0AI34649   5.550   8.477   9.156
   508G11  C0AV34650   5.581   8.591   9.393
   508G11  C0BB34651   5.843   8.757   9.198
   508G11  O00C34652   5.678   8.782   9.515
   508G11  C0BC34653   5.904   8.868   9.231
   508G11  C0B934654   5.813   8.832   8.964
   508G11  O00E34655   5.964   9.156   8.898
   508G11  C0CA34656   6.000   9.235   8.798
   508G11  O00F34657   6.079   9.330   8.829
   508G11  C0BF34658   5.755   8.897   8.736
   508G11  C0C534659   5.939   9.208   8.669
   508G11  C0C434660   5.961   9.298   8.560
   508G11  H01134661   6.028   9.383   8.564
   508G11  C0C834662   5.691   8.972   8.519
   508G11  C0C234663   5.881   9.274   8.444
   508G11  C0C334664   5.892   9.360   8.333
   508G11  C0DY34665   5.967   9.476   8.317
   508G11  H01634666   6.037   9.529   8.379
   508G11  C0DX34667   5.933   9.535   8.189
   508G11  C0DW34668   5.983   9.661   8.152
   508G11  C0BY34669   5.620   9.053   8.305
   508G11  C0DB34670   5.810   9.349   8.221
   508G11  C0CC34671   5.556   9.134   8.084
   508G11  C0D734672   5.574   9.312   7.873
   508G11  C0DZ34673   5.824   9.455   8.132
   508G11  C0DM34674   5.644   9.515   7.714
   508G11  C0DQ34675   5.846   9.702   7.945
   508G11  C0DV34676   5.938   9.733   8.037
   508G11  C0E034677   6.087   9.745   8.222
   508G11  C0FO34678   6.095  10.087   8.196
   508G11  C0E334679   6.089   9.793   8.361
   508G11  H01734680   6.041   9.747   8.446
   508G11  C0GV34681   6.077  10.139   8.323
   508G11  C0ES34682   6.017  10.143   8.087
   508G11  C0GQ34683   5.892  10.444   8.270
   508G11  C0FJ34684   5.769  10.548   7.931
   508G11  C0ED34685   5.866  10.282   7.881
   508G11  C0ER34686   5.913  10.419   7.565
   508G11  C0EP34687   5.833  10.247   7.440
   508G11  C0E634688   5.858  10.043   7.767
   508G11  C0DE34689   5.740   9.816   7.599
   508G11  C0EA34690   5.718  10.063   7.298
   508G11  C0DF34691   5.716   9.741   7.481
   508G11  C08034692   5.519   9.815   7.196
   508G11  C0DO34693   5.617   9.637   7.484
   508G11  C0DJ34694   5.415   9.451   7.434
   508G11  C07K34695   5.330   9.635   7.122
   508G11  C07W34696   5.244   9.337   7.319
   508G11  C08334697   5.067   9.309   7.109
   508G11  C07J34698   5.232   9.619   7.020
   508G11  C06O34699   5.052   9.585   6.807
   508G11  C06M34700   4.965   9.386   6.903
   518G11  C07134701   5.880   7.630  11.616
   518G11  C07L34702   5.989   7.717  11.638
   518G11  C07M34703   6.017   7.768  11.764
   518G11  C07Y34704   6.130   7.856  11.787
   518G11  C08134705   6.208   7.904  11.675
   518G11  C08234706   6.317   7.985  11.710
   518G11  C0DI34707   6.415   8.050  11.620
   518G11  C0DH34708   6.428   8.055  11.477
   518G11  C0DG34709   6.542   8.126  11.441
   518G11  C0E934710   6.570   8.217  11.328
   518G11  C0E834711   6.664   8.312  11.396
   518G11  C0E734712   6.762   8.396  11.336
   518G11  C0EB34713   6.760   8.424  11.188
   518G11  C0EF34714   6.852   8.509  11.119
   518G11  C0EE34715   6.989   8.474  11.119
   518G11  C0FD34716   7.069   8.441  10.998
   518G11  C0FE34717   7.016   8.407  10.874
   518G11  H01B34718   6.909   8.394  10.863
   518G11  C0FF34719   7.097   8.407  10.763
   518G11  H01A34720   7.040   8.381  10.675
   518G11  C0FG34721   7.234   8.410  10.777
   518G11  H01834722   7.302   8.395  10.695
   518G11  C0FH34723   7.293   8.421  10.899
   518G11  C0FI34724   7.432   8.394  10.924
   518G11  H01934725   7.506   8.385  10.846
   518G11  O00K34726   7.480   8.368  11.048
   518G11  C0FL34727   7.397   8.405  11.151
   518G11  C0FK34728   7.261   8.447  11.134
   518G11  C0FM34729   7.191   8.483  11.251
   518G11  C0FN34730   7.264   8.518  11.365
   518G11  C0FP34731   7.395   8.456  11.384
   518G11  C0GO34732   7.445   8.438  11.505
   518G11  C0GN34733   7.509   8.323  11.543
   518G11  C0GR34734   7.562   8.247  11.436
   518G11  C0GS34735   7.625   8.124  11.464
   518G11  H01Q34736   7.670   8.066  11.385
   518G11  C0GT34737   7.624   8.079  11.599
   518G11  H01O34738   7.677   7.991  11.631
   518G11  C0GU34739   7.573   8.155  11.704
   518G11  H01P34740   7.581   8.119  11.805
   518G11  O00L34741   7.553   8.295  11.306
   518G11  C0GM34742   7.512   8.280  11.680
   518G11  C0GL34743   7.470   8.373  11.780
   518G11  H01R34744   7.487   8.339  11.881
   518G11  C0GK34745   7.408   8.493  11.740
   518G11  C0GP34746   7.316   8.588  11.803
   518G11  C0E234747   7.258   8.676  11.705
   518G11  C0E134748   7.125   8.717  11.755
   518G11  C0DU34749   7.001   8.666  11.694
   518G11  C0DT34750   6.979   8.617  11.564
   518G11  C0E434751   7.067   8.590  11.466
   518G11  C0E534752   6.997   8.526  11.366
   518G11  C0DS34753   6.865   8.537  11.538
   518G11  C0DR34754   6.781   8.498  11.645
   518G11  C0DD34755   6.692   8.390  11.657
   518G11  C0DC34756   6.647   8.390  11.802
   518G11  C0DP34757   6.712   8.498  11.872
   518G11  C0DA34758   6.688   8.535  12.011
   518G11  C0D934759   6.586   8.487  12.118
   518G11  C0CR34760   6.576   8.562  12.243
   518G11  C0C034761   6.640   8.682  12.264
   518G11  C0BZ34762   6.629   8.767  12.379
   518G11  C0C134763   6.712   8.881  12.395
   518G11  C0C734764   6.695   8.965  12.510
   518G11  C0C634765   6.764   9.088  12.521
   518G11  C0C934766   6.747   9.165  12.631
   518G11  C0B834767   6.818   9.288  12.648
   518G11  C0B734768   6.799   9.377  12.752
   518G11  C0B634769   6.873   9.494  12.807
   518G11  C0B534770   7.019   9.505  12.802
   518G11  H00Z34771   7.087   9.455  12.735
   518G11  C0B434772   7.053   9.584  12.923
   518G11  H01034773   7.147   9.605  12.971
   518G11  C0B334774   6.929   9.618  12.986
   518G11  C0AP34775   6.861   9.644  13.119
   518G11  C0AQ34776   6.734   9.597  13.097
   518G11  C0AR34777   6.664   9.542  13.208
   518G11  C0AS34778   6.584   9.443  13.172
   518G11  C0AT34779   6.580   9.375  13.047
   518G11  C0BA34780   6.658   9.418  12.947
   518G11  C0AU34781   6.523   9.252  13.041
   518G11  C0BE34782   6.545   9.170  12.930
   518G11  C0BI34783   6.487   9.044  12.928
   518G11  C0BJ34784   6.419   8.997  13.037
   518G11  C0BK34785   6.361   8.870  13.039
   518G11  C0BW34786   6.373   8.789  12.926
   518G11  C0BV34787   6.451   8.833  12.818
   518G11  C0BU34788   6.472   8.750  12.706
   518G11  C0BX34789   6.550   8.795  12.601
   518G11  C0BT34790   6.408   8.628  12.701
   518G11  C0CD34791   6.411   8.560  12.577
   518G11  C0CB34792   6.487   8.603  12.469
   518G11  C0CE34793   6.343   8.439  12.565
   518G11  C0CK34794   6.266   8.392  12.676
   518G11  C0BS34795   6.264   8.463  12.798
   518G11  C0CJ34796   6.185   8.417  12.909
   518G11  C0BP34797   6.180   8.491  13.025
   518G11  C0CI34798   6.102   8.450  13.131
   518G11  C0CH34799   6.079   8.551  13.229
   518G11  H01234800   5.997   8.538  13.299
   518G11  C0BN34801   6.162   8.662  13.252
   518G11  C0CG34802   6.150   8.737  13.370
   518G11  C0CF34803   6.083   8.686  13.489
   518G11  H01334804   6.034   8.590  13.496
   518G11  O00G34805   6.069   8.767  13.600
   518G11  C0AA34806   6.139   8.879  13.607
   518G11  C0A934807   6.129   8.951  13.718
   518G11  H00U34808   6.062   8.913  13.793
   518G11  C0A834809   6.210   9.062  13.742
   518G11  H00V34810   6.194   9.112  13.836
   518G11  C0A734811   6.302   9.108  13.647
   518G11  C0A634812   6.284   9.054  13.510
   518G11  C0A534813   6.340   9.100  13.390
   518G11  C0A434814   6.394   9.233  13.389
   518G11  C0A334815   6.442   9.339  13.484
   518G11  C0A234816   6.469   9.310  13.619
   518G11  C0A134817   6.529   9.400  13.709
   518G11  C0A034818   6.615   9.520  13.701
   518G11  C09Z34819   6.647   9.584  13.825
   518G11  C09Y34820   6.728   9.698  13.830
   518G11  H00Y34821   6.765   9.744  13.921
   518G11  C09X34822   6.802   9.730  13.715
   518G11  C09W34823   6.895   9.838  13.726
   518G11  H00R34824   6.918   9.885  13.820
   518G11  C0AX34825   6.969   9.883  13.618
   518G11  H00S34826   7.042   9.962  13.629
   518G11  C0AW34827   6.959   9.814  13.496
   518G11  H00T34828   7.009   9.854  13.409
   518G11  C0AN34829   6.858   9.710  13.474
   518G11  C0AO34830   6.823   9.647  13.353
   518G11  C0AM34831   6.777   9.673  13.587
   518G11  C0B234832   6.598   9.553  13.957
   518G11  O00D34833   6.627   9.623  14.059
   518G11  C0B134834   6.521   9.435  13.960
   518G11  H00W34835   6.497   9.395  14.057
   518G11  C0AL34836   6.670   9.570  13.579
   518G11  C0AK34837   6.632   9.529  13.448
   518G11  C0B034838   6.490   9.364  13.842
   518G11  C0AZ34839   6.418   9.237  13.831
   518G11  H00X34840   6.378   9.180  13.913
   518G11  C0AJ34841   6.530   9.429  13.414
   518G11  C0AH34842   6.437   9.280  13.263
   518G11  C0AE34843   6.336   9.030  13.268
   518G11  C0AD34844   6.282   8.907  13.265
   518G11  C0AY34845   6.392   9.212  13.691
   518G11  C0AB34846   6.213   8.932  13.495
   518G11  C0AC34847   6.215   8.858  13.379
   518G11  C0BM34848   6.239   8.699  13.145
   518G11  C0CM34849   6.054   8.314  13.145
   518G11  C09M34850   6.050   8.235  13.021
   518G11  C09834851   5.988   8.102  13.029
   518G11  C08R34852   5.932   8.004  12.931
   518G11  C08Q34853   5.870   7.885  12.987
   518G11  C08P34854   5.766   7.795  12.947
   518G11  C08Y34855   5.692   7.728  13.054
   518G11  C09734856   5.700   7.788  13.183
   518G11  C09634857   5.576   7.800  13.236
   518G11  C09034858   5.493   7.708  13.161
   518G11  C09534859   5.354   7.706  13.171
   518G11  C09434860   5.268   7.608  13.096
   518G11  C08J34861   5.281   7.558  12.959
   518G11  C08I34862   5.160   7.568  12.889
   518G11  C08H34863   5.196   7.565  12.749
   518G11  C08G34864   5.344   7.589  12.736
   518G11  C08F34865   5.443   7.590  12.631
   518G11  C08E34866   5.419   7.524  12.502
   518G11  C05934867   5.316   7.439  12.468
   518G11  C05834868   5.323   7.363  12.349
   518G11  C05734869   5.220   7.282  12.301
   518G11  C05634870   5.102   7.269  12.390
   518G11  C05534871   5.104   7.322  12.512
   518G11  C05434872   4.979   7.321  12.574
   518G11  C05334873   4.883   7.292  12.463
   518G11  C05234874   4.742   7.318  12.453
   518G11  C05134875   4.668   7.385  12.562
   518G11  C05U34876   4.720   7.439  12.685
   518G11  C05T34877   4.854   7.457  12.732
   518G11  C06K34878   4.836   7.480  12.871
   518G11  H00J34879   4.928   7.474  12.926
   518G11  C06L34880   4.701   7.508  12.901
   518G11  H00I34881   4.667   7.539  12.999
   518G11  C05V34882   4.627   7.472  12.784
   518G11  C06J34883   4.494   7.491  12.761
   518G11  H00K34884   4.438   7.539  12.839
   518G11  C05X34885   4.437   7.458  12.641
   518G11  C06I34886   4.305   7.474  12.609
   518G11  H00L34887   4.253   7.516  12.693
   518G11  C04Z34888   4.247   7.450  12.482
   518G11  C06H34889   4.116   7.486  12.461
   518G11  H00H34890   4.054   7.544  12.529
   518G11  C04Y34891   4.057   7.455  12.333
   518G11  C06G34892   3.920   7.504  12.302
   518G11  O00934893   3.847   7.575  12.376
   518G11  O00834894   3.876   7.498  12.175
   518G11  C04P34895   3.956   7.445  12.073
   518G11  C04J34896   3.914   7.435  11.938
   518G11  C04Q34897   3.792   7.474  11.882
   518G11  H00E34898   3.715   7.509  11.948
   518G11  C04M34899   3.760   7.477  11.747
   518G11  C04R34900   3.636   7.520  11.690
   518G11  H00F34901   3.563   7.564  11.756
   518G11  C04S34902   3.611   7.500  11.561
   518G11  H00G34903   3.508   7.523  11.537
   518G11  O00734904   3.703   7.450  11.473
   518G11  C03V34905   3.825   7.403  11.524
   518G11  C03U34906   3.921   7.347  11.444
   518G11  O00634907   3.887   7.335  11.317
   518G11  C03F34908   3.979   7.304  11.228
   518G11  C03E34909   4.109   7.264  11.261
   518G11  C03D34910   4.146   7.264  11.395
   518G11  C03C34911   4.272   7.223  11.434
   518G11  C03B34912   4.358   7.185  11.330
   518G11  C03A34913   4.493   7.162  11.361
   518G11  C03934914   4.540   7.168  11.493
   518G11  C03834915   4.683   7.137  11.469
   518G11  C03734916   4.696   7.108  11.328
   518G11  C03634917   4.815   7.065  11.281
   518G11  C02R34918   4.853   7.047  11.152
   518G11  C03534919   4.999   7.045  11.163
   518G11  C03R34920   5.045   7.068  11.290
   518G11  C03S34921   5.155   7.154  11.326
   518G11  C04934922   5.167   7.190  11.455
   518G11  C04834923   5.056   7.168  11.539
   518G11  C03P34924   4.925   7.128  11.497
   518G11  C04734925   5.084   7.200  11.673
   518G11  C04634926   5.008   7.170  11.786
   518G11  C04534927   4.874   7.141  11.795
   518G11  C03T34928   4.777   7.144  11.696
   518G11  C04434929   4.648   7.142  11.757
   518G11  C04334930   4.669   7.107  11.895
   518G11  C04234931   4.574   7.171  11.978
   518G11  C04134932   4.466   7.204  11.873
   518G11  C04034933   4.331   7.230  11.905
   518G11  C03Z34934   4.226   7.269  11.809
   518G11  C04H34935   4.121   7.317  11.891
   518G11  C04G34936   4.155   7.320  12.024
   518G11  C03N34937   4.205   7.271  11.666
   518G11  C03Y34938   4.078   7.318  11.625
   518G11  C03X34939   3.975   7.360  11.709
   518G11  C04F34940   4.281   7.278  12.033
   518G11  C04E34941   4.344   7.297  12.158
   518G11  C04O34942   4.269   7.360  12.260
   518G11  C04D34943   4.481   7.270  12.192
   518G11  C04V34944   4.538   7.309  12.315
   518G11  C04W34945   4.460   7.366  12.421
   518G11  C04C34946   4.583   7.205  12.120
   518G11  C04L34947   4.699   7.207  12.206
   518G11  C04U34948   4.833   7.164  12.163
   518G11  C05Q34949   4.954   7.193  12.231
   518G11  C05P34950   5.063   7.192  12.140
   518G11  C04T34951   5.015   7.168  12.017
   518G11  C04B34952   4.883   7.146  12.029
   518G11  C03M34953   4.513   7.190  11.735
   518G11  C04A34954   4.805   7.126  11.913
   518G11  C05H34955   5.082   7.183  11.899
   518G11  C05G34956   5.209   7.232  11.856
   518G11  C05F34957   5.320   7.257  11.942
   518G11  C05E34958   5.435   7.332  11.900
   518G11  C05L34959   5.504   7.377  11.782
   518G11  C05K34960   5.449   7.346  11.656
   518G11  C05J34961   5.320   7.284  11.621
   518G11  C06634962   5.534   7.390  11.550
   518G11  C06534963   5.652   7.466  11.572
   518G11  C06434964   5.693   7.502  11.698
   518G11  C06N34965   5.729   7.514  11.460
   518G11  C06934966   5.680   7.492  11.330
   518G11  C06P34967   5.751   7.551  11.224
   518G11  C06R34968   5.711   7.534  11.089
   518G11  C06B34969   5.595   7.458  11.066
   518G11  C06S34970   5.554   7.443  10.934
   518G11  C02G34971   5.446   7.358  10.906
   518G11  C02F34972   5.401   7.334  10.776
   518G11  C02734973   5.462   7.400  10.673
   518G11  C02634974   5.406   7.392  10.543
   518G11  C00E34975   5.461   7.472  10.444
   518G11  C00D34976   5.400   7.477  10.322
   518G11  C00C34977   5.457   7.558  10.229
   518G11  C00B34978   5.557   7.647  10.252
   518G11  C01534979   5.626   7.635  10.371
   518G11  C07F34980   5.735   7.716  10.397
   518G11  C07E34981   5.797   7.712  10.520
   518G11  C06W34982   5.741   7.634  10.620
   518G11  C06V34983   5.631   7.551  10.596
   518G11  C06X34984   5.793   7.641  10.747
   518G11  C07B34985   5.895   7.732  10.775
   518G11  C07C34986   5.950   7.807  10.673
   518G11  C0FU34987   6.055   7.895  10.701
   518G11  C0F734988   6.099   7.983  10.603
   518G11  C0F634989   6.200   8.073  10.635
   518G11  C0F834990   6.242   8.154  10.533
   518G11  C0F934991   6.339   8.251  10.558
   518G11  C0FA34992   6.376   8.342  10.459
   518G11  C0FZ34993   6.321   8.332  10.336
   518G11  C0G034994   6.372   8.414  10.233
   518G11  C0GD34995   6.482   8.496  10.247
   518G11  C0FC34996   6.525   8.515  10.382
   518G11  C0GH34997   6.624   8.618  10.414
   518G11  C0EY34998   6.656   8.642  10.544
   518G11  C0EX34999   6.745   8.748  10.579
   518G11  C0EW35000   6.780   8.761  10.709
   518G11  C0FR35001   6.856   8.877  10.748
   518G11  H01D35002   6.886   8.896  10.850
   518G11  C0FS35003   6.894   8.975  10.657
   518G11  H01C35004   6.946   9.065  10.686
   518G11  C0GJ35005   6.857   8.950  10.526
   518G11  H01N35006   6.884   9.026  10.454
   518G11  C0EV35007   6.744   8.669  10.802
   518G11  C0FT35008   6.827   8.661  10.914
   518G11  H01E35009   6.912   8.724  10.934
   518G11  C0EU35010   6.650   8.572  10.770
   518G11  C0ET35011   6.612   8.478  10.862
   518G11  C0EI35012   6.528   8.378  10.848
   518G11  C0F135013   6.475   8.367  10.716
   518G11  C0F035014   6.512   8.454  10.618
   518G11  C0EH35015   6.495   8.293  10.955
   518G11  C0EG35016   6.556   8.305  11.086
   518G11  C0EJ35017   6.406   8.189  10.925
   518G11  C0F335018   6.353   8.181  10.791
   518G11  C0EK35019   6.366   8.102  11.027
   518G11  C0EL35020   6.415   8.112  11.161
   518G11  C0EM35021   6.351   8.014  11.248
   518G11  C0EN35022   6.253   7.930  11.202
   518G11  C07I35023   6.192   7.859  11.308
   518G11  C07435024   6.079   7.783  11.284
   518G11  C07335025   6.020   7.733  11.396
   518G11  C07235026   5.909   7.647  11.377
   518G11  C07535027   6.041   7.762  11.152
   518G11  C07635028   6.102   7.834  11.052
   518G11  C07835029   6.046   7.829  10.929
   518G11  C07G35030   5.929   7.686  11.136
   518G11  C07035031   5.880   7.674  11.004
   518G11  C07Z35032   6.242   7.897  11.433
   518G11  C07735033   6.208   7.919  11.074
   518G11  C0EO35034   6.273   7.999  10.984
   518G11  C0F435035   6.219   7.993  10.856
   518G11  C0EQ35036   6.679   8.488  10.985
   518G11  C0FQ35037   6.791   8.832  10.481
   518G11  C0GI35038   6.755   8.801  10.351
   518G11  H01L35039   6.796   8.865  10.274
   518G11  C0EZ35040   6.604   8.558  10.643
   518G11  C0GG35041   6.672   8.695  10.314
   518G11  C0GF35042   6.641   8.662  10.181
   518G11  H01M35043   6.677   8.712  10.092
   518G11  C0GE35044   6.551   8.562  10.142
   518G11  H01K35045   6.527   8.548  10.037
   518G11  O00J35046   6.321   8.404  10.109
   518G11  C0GA35047   6.226   8.312  10.078
   518G11  C0G935048   6.177   8.315   9.950
   518G11  H01H35049   6.213   8.383   9.874
   518G11  C0G835050   6.083   8.217   9.910
   518G11  C0G735051   6.028   8.197   9.779
   518G11  H01I35052   6.055   8.262   9.697
   518G11  O00I35053   5.952   8.084   9.741
   518G11  C0G635054   5.912   8.006   9.844
   518G11  H01J35055   5.879   7.907   9.818
   518G11  C02D35056   5.946   8.028   9.979
   518G11  C02C35057   5.888   7.959  10.085
   518G11  C01735058   5.764   7.891  10.069
   518G11  C01635059   5.712   7.807  10.176
   518G11  O00135060   5.687   7.913   9.954
   518G11  C01835061   5.564   7.860   9.945
   518G11  C00935062   5.519   7.761  10.036
   518G11  C00835063   5.393   7.687  10.030
   518G11  C00735064   5.279   7.689   9.947
   518G11  C00635065   5.262   7.774   9.838
   518G11  C00535066   5.146   7.779   9.760
   518G11  C00435067   5.022   7.705   9.772
   518G11  C00335068   4.979   7.597   9.863
   518G11  C00235069   4.848   7.544   9.848
   518G11  C00P35070   4.799   7.450   9.945
   518G11  C00O35071   4.662   7.399   9.941
   518G11  C00N35072   4.607   7.321  10.036
   518G11  C01035073   4.469   7.295  10.046
   518G11  C01135074   4.407   7.222  10.146
   518G11  C01Q35075   4.271   7.212  10.159
   518G11  C01U35076   4.186   7.278  10.069
   518G11  C01235077   4.248   7.351   9.972
   518G11  H00035078   4.181   7.402   9.904
   518G11  C01V35079   4.045   7.248  10.082
   518G11  H00735080   3.978   7.299  10.014
   518G11  O00535081   3.992   7.158  10.172
   518G11  C01W35082   4.082   7.099  10.261
   518G11  C03135083   4.033   7.010  10.357
   518G11  C03235084   4.122   6.938  10.438
   518G11  H00A35085   4.092   6.862  10.509
   518G11  C03335086   4.257   6.971  10.433
   518G11  H00B35087   4.330   6.913  10.489
   518G11  C01O35088   4.306   7.071  10.347
   518G11  C01N35089   4.434   7.111  10.356
   518G11  C01M35090   4.525   7.067  10.460
   518G11  C01L35091   4.515   7.066  10.607
   518G11  C01K35092   4.646   7.047  10.654
   518G11  C01Y35093   4.692   7.071  10.785
   518G11  C02I35094   4.598   7.094  10.881
   518G11  C02N35095   4.646   7.091  11.014
   518G11  C02M35096   4.551   7.116  11.122
   518G11  C02L35097   4.417   7.151  11.090
   518G11  C02K35098   4.380   7.161  10.952
   518G11  C02U35099   4.250   7.214  10.922
   518G11  C02V35100   4.164   7.244  11.024
   518G11  C03H35101   4.026   7.279  10.991
   518G11  H00C35102   3.983   7.284  10.892
   518G11  C02W35103   4.222   7.245  10.793
   518G11  C02X35104   4.309   7.204  10.696
   518G11  C02Y35105   4.269   7.276  10.579
   518G11  H00835106   4.323   7.290  10.487
   518G11  C02Z35107   4.159   7.368  10.618
   518G11  O00435108   4.086   7.449  10.556
   518G11  O00335109   4.142   7.343  10.755
   518G11  C02J35110   4.463   7.118  10.845
   518G11  C01Z35111   4.827   7.073  10.797
   518G11  C02035112   4.913   7.093  10.691
   518G11  C01I35113   4.864   7.087  10.558
   518G11  C01H35114   4.921   7.146  10.448
   518G11  C00K35115   4.849   7.171  10.331
   518G11  C01S35116   4.714   7.134  10.323
   518G11  C01435117   4.629   7.182  10.227
   518G11  C00J35118   4.901   7.254  10.239
   518G11  C00I35119   5.032   7.299  10.250
   518G11  C00H35120   5.103   7.268  10.366
   518G11  C00G35121   5.231   7.326  10.396
   518G11  C00S35122   5.089   7.379  10.151
   518G11  C00T35123   5.211   7.426  10.181
   518G11  C00U35124   5.264   7.514  10.085
   518G11  C00R35125   5.010   7.432  10.046
   518G11  C00L35126   4.823   7.301  10.135
   518G11  C02835127   5.046   7.202  10.471
   518G11  C02335128   5.112   7.197  10.599
   518G11  C02435129   5.232   7.256  10.621
   518G11  C02135130   5.038   7.146  10.707
   518G11  C02235131   5.092   7.145  10.831
   518G11  C02H35132   5.216   7.199  10.852
   518G11  C03035133   5.267   7.216  10.982
   518G11  C03435134   5.192   7.169  11.086
   518G11  C02P35135   5.017   7.098  10.936
   518G11  C02B35136   4.878   7.075  10.922
   518G11  C01J35137   4.733   7.036  10.544
   518G11  C01X35138   4.428   7.127  10.705
   518G11  C01T35139   4.660   7.057  10.428
   518G11  H00935140   3.927   6.988  10.359
   518G11  C01P35141   4.222   7.127  10.253
   518G11  C01R35142   4.489   7.170  10.244
   518G11  C00Z35143   4.387   7.366   9.961
   518G11  O00035144   4.441   7.435   9.856
   518G11  C00M35145   4.693   7.264  10.130
   518G11  C00Y35146   4.577   7.462   9.847
   518G11  C01335147   4.624   7.535   9.741
   518G11  H00135148   4.556   7.570   9.664
   518G11  C00Q35149   4.880   7.394  10.039
   518G11  C00135150   4.760   7.582   9.747
   518G11  C00035151   4.818   7.659   9.649
   518G11  H00635152   4.763   7.668   9.557
   518G11  C00W35153   5.063   7.532   9.957
   518G11  C01G35154   4.940   7.723   9.656
   518G11  H00535155   4.962   7.780   9.567
   518G11  C01C35156   5.174   7.877   9.657
   518G11  H00235157   5.113   7.902   9.572
   518G11  C01B35158   5.304   7.933   9.679
   518G11  C01D35159   5.381   8.019   9.596
   518G11  H00335160   5.329   8.052   9.508
   518G11  C01E35161   5.500   8.054   9.646
   518G11  H00435162   5.561   8.115   9.581
   518G11  O00235163   5.552   8.015   9.771
   518G11  C01A35164   5.360   7.870   9.793
   518G11  C00V35165   5.192   7.582   9.984
   518G11  C01935166   5.488   7.907   9.835
   518G11  C02E35167   5.941   7.963  10.212
   518G11  C0FX35168   6.039   8.053  10.239
   518G11  C0FW35169   6.092   8.061  10.370
   518G11  C0GB35170   6.084   8.135  10.139
   518G11  C0G335171   5.889   7.884  10.317
   518G11  C07H35172   5.941   7.889  10.445
   518G11  C0GC35173   6.035   8.128  10.006
   518G11  C0G235174   6.178   8.227  10.176
   518G11  C0G135175   6.227   8.236  10.305
   518G11  C0FB35176   6.469   8.437  10.485
   518G11  C0F235177   6.388   8.265  10.687
   518G11  C0FY35178   6.187   8.151  10.404
   518G11  C0F535179   6.266   8.078  10.756
   518G11  C0FV35180   6.047   7.976  10.471
   518G11  C07935181   6.109   7.905  10.825
   518G11  C07A35182   5.934   7.749  10.905
   518G11  C06Y35183   5.727   7.581  10.850
   518G11  C07D35184   5.901   7.798  10.547
   518G11  C01F35185   5.779   7.801  10.292
   518G11  C00A35186   5.596   7.736  10.151
   518G11  C00X35187   5.382   7.575  10.111
   518G11  C00F35188   5.286   7.399  10.295
   518G11  C02935189   5.574   7.550  10.469
   518G11  C02535190   5.294   7.322  10.518
   518G11  C06U35191   5.576   7.481  10.695
   518G11  C02A35192   5.287   7.259  10.750
   518G11  C05Y35193   5.378   7.297  11.014
   518G11  C05Z35194   5.418   7.320  11.141
   518G11  C06035195   5.340   7.275  11.247
   518G11  C06235196   5.374   7.297  11.382
   518G11  C06T35197   5.623   7.498  10.826
   518G11  C06A35198   5.528   7.395  11.177
   518G11  C06Z35199   5.771   7.598  10.982
   518G11  C06Q35200   5.865   7.627  11.243
   518G11  C06835201   5.565   7.421  11.308
   518G11  C06735202   5.497   7.370  11.417
   518G11  C06335203   5.621   7.457  11.809
   518G11  C06C35204   5.657   7.498  11.937
   518G11  C06D35205   5.584   7.465  12.047
   518G11  C06E35206   5.602   7.511  12.174
   518G11  C07Q35207   5.705   7.601  12.193
   518G11  C07P35208   5.782   7.633  12.085
   518G11  C07T35209   5.885   7.723  12.108
   518G11  C07U35210   5.967   7.762  12.002
   518G11  C07V35211   6.067   7.857  12.024
   518G11  C08435212   6.083   7.911  12.150
   518G11  C08C35213   5.998   7.877  12.251
   518G11  C08B35214   6.011   7.933  12.375
   518G11  C08A35215   5.924   7.897  12.478
   518G11  C08935216   5.830   7.802  12.463
   518G11  C08835217   5.752   7.767  12.573
   518G11  C08735218   5.648   7.678  12.552
   518G11  C08635219   5.630   7.629  12.422
   518G11  C08X35220   5.773   7.823  12.699
   518G11  C08T35221   5.867   7.936  12.711
   518G11  C08D35222   5.816   7.748  12.336
   518G11  C08U35223   5.950   7.952  12.600
   518G11  C08V35224   6.030   8.058  12.618
   518G11  C0CY35225   6.107   8.108  12.509
   518G11  C0CX35226   6.185   8.216  12.538
   518G11  C0CW35227   6.267   8.255  12.432
   518G11  C0CV35228   6.270   8.181  12.314
   518G11  C0D435229   6.186   8.073  12.298
   518G11  C0CU35230   6.358   8.219  12.214
   518G11  C0CT35231   6.438   8.330  12.225
   518G11  C0CS35232   6.421   8.410  12.337
   518G11  C0D635233   6.351   8.143  12.102
   518G11  C0EC35234   6.263   8.039  12.076
   518G11  C07X35235   6.249   7.991  11.944
   518G11  C0DL35236   6.446   8.168  12.003
   518G11  C0DK35237   6.433   8.113  11.877
   518G11  C0DN35238   6.519   8.176  11.797
   518G11  C0D835239   6.520   8.280  12.001
   518G11  C08W35240   6.015   8.118  12.740
   518G11  C0CQ35241   6.106   8.230  12.772
   518G11  C09335242   6.103   8.035  12.398
   518G11  C09235243   6.177   8.007  12.178
   518G11  C08535244   5.899   7.781  12.230
   518G11  C07S35245   5.718   7.658  12.317
   518G11  C06F35246   5.521   7.479  12.281
   518G11  C07O35247   5.756   7.586  11.961
   518G11  C07N35248   5.831   7.630  11.854
   518G11  C05D35249   5.489   7.368  12.029
   518G11  C05C35250   5.408   7.333  12.138
   518G11  C05N35251   5.301   7.268  12.084
   518G11  C05M35252   5.216   7.243  11.717
   518G11  C05I35253   5.285   7.256  11.489
   518G11  C06135254   5.230   7.203  11.218
   518G11  C02Q35255   5.073   7.102  11.060
   518G11  C02O35256   4.788   7.072  11.027
   518G11  C03Q35257   4.931   7.080  11.362
   518G11  C03O35258   4.795   7.139  11.560
   518G11  C03L35259   4.449   7.194  11.607
   518G11  C02S35260   4.583   7.132  11.260
   518G11  C02T35261   4.325   7.186  11.193
   518G11  C03K35262   4.311   7.227  11.571
   518G11  C03I35263   4.204   7.231  11.160
   518G11  C03G35264   3.936   7.316  11.095
   518G11  H00D35265   3.839   7.353  11.064
   518G11  C03J35266   4.051   7.312  11.490
   518G11  C03W35267   3.854   7.417  11.662
   518G11  C04I35268   3.998   7.372  11.844
   518G11  C04K35269   4.080   7.397  12.111
   518G11  C04N35270   4.134   7.397  12.238
   518G11  C04X35271   4.326   7.392  12.386
   518G11  C05035272   4.525   7.404  12.543
   518G11  C05W35273   4.672   7.280  12.332
   518G11  C05S35274   4.979   7.428  12.661
   518G11  C05R35275   4.973   7.242  12.360
   518G11  C05O35276   5.193   7.241  12.169
   518G11  C05B35277   5.421   7.390  12.265
   518G11  C05A35278   5.193   7.424  12.542
   518G11  C07R35279   5.524   7.540  12.405
   518G11  C08N35280   5.561   7.655  12.660
   518G11  C08M35281   5.594   7.697  12.791
   518G11  C08L35282   5.512   7.664  12.903
   518G11  C09135283   5.123   7.484  12.652
   518G11  C09K35284   5.084   7.669  12.963
   518G11  H00M35285   5.000   7.730  12.932
   518G11  C08K35286   5.385   7.606  12.871
   518G11  C09J35287   5.139   7.667  13.101
   518G11  C09I35288   5.134   7.753  13.214
   518G11  C09L35289   5.025   7.801  13.297
   518G11  H00N35290   4.922   7.772  13.283
   518G11  C09Q35291   5.060   7.882  13.394
   518G11  H00O35292   4.973   7.907  13.452
   518G11  O00B35293   5.186   7.932  13.423
   518G11  C09G35294   5.294   7.878  13.354
   518G11  C09F35295   5.423   7.915  13.410
   518G11  O00A35296   5.411   7.994  13.521
   518G11  C09P35297   5.511   8.078  13.552
   518G11  H00P35298   5.496   8.147  13.634
   518G11  C09O35299   5.637   8.080  13.480
   518G11  C09D35300   5.647   7.997  13.363
   518G11  C09C35301   5.764   7.988  13.274
   518G11  C09N35302   5.862   8.087  13.238
   518G11  C09T35303   5.881   8.205  13.308
   518G11  C09S35304   5.849   8.212  13.450
   518G11  C0CP35305   5.967   8.273  13.501
   518G11  C0CN35306   6.061   8.310  13.403
   518G11  C0CO35307   6.180   8.377  13.443
   518G11  H01435308   6.254   8.409  13.371
   518G11  C0CZ35309   6.193   8.400  13.581
   518G11  H01535310   6.278   8.447  13.630
   518G11  C0D035311   6.089   8.363  13.679
   518G11  C0G535312   6.096   8.387  13.822
   518G11  H01F35313   6.183   8.435  13.864
   518G11  C0G435314   5.987   8.358  13.899
   518G11  H01G35315   5.988   8.372  14.006
   518G11  O00H35316   5.862   8.309  13.855
   518G11  C0D235317   5.864   8.272  13.726
   518G11  C09V35318   5.752   8.199  13.670
   518G11  H00Q35319   5.674   8.162  13.736
   518G11  C0D135320   5.970   8.301  13.638
   518G11  C09R35321   5.747   8.161  13.534
   518G11  C09H35322   5.267   7.782  13.255
   518G11  C09E35323   5.544   7.901  13.336
   518G11  C09B35324   5.797   7.877  13.202
   518G11  C08Z35325   5.561   7.696  13.034
   518G11  C08O35326   5.712   7.771  12.814
   518G11  C09A35327   5.903   7.898  13.121
   518G11  C08S35328   5.924   8.035  12.801
   518G11  C09935329   5.954   8.031  13.144
   518G11  C09U35330   6.005   8.278  13.275
   518G11  C0BO35331   6.239   8.618  13.028
   518G11  C0CL35332   6.109   8.298  12.898
   518G11  C0D335333   6.188   8.273  12.663
   518G11  C0D535334   6.346   8.366  12.445
   518G11  C0BR35335   6.330   8.583  12.810
   518G11  C0BQ35336   6.318   8.660  12.924
   518G11  C0BL35337   6.291   8.828  13.147
   518G11  C0AF35338   6.395   9.078  13.153
   518G11  C0BH35339   6.512   8.957  12.822
   518G11  C0BG35340   6.595   8.998  12.718
   518G11  C0BD35341   6.638   9.209  12.837
   518G11  C0AG35342   6.443   9.207  13.145
   518G11  C0AI35343   6.514   9.392  13.282
   518G11  C0AV35344   6.704   9.576  13.337
   518G11  C0BB35345   6.728   9.540  12.971
   518G11  O00C35346   6.908   9.669  13.244
   518G11  C0BC35347   6.830   9.584  12.896
   518G11  C0B935348   6.696   9.335  12.843
   518G11  O00E35349   6.906   9.327  12.551
   518G11  C0CA35350   6.920   9.258  12.431
   518G11  O00F35351   6.972   9.308  12.333
   518G11  C0BF35352   6.656   9.124  12.729
   518G11  C0C535353   6.852   9.131  12.426
   518G11  C0C435354   6.869   9.054  12.309
   518G11  H01135355   6.929   9.092  12.227
   518G11  C0C835356   6.616   8.919  12.608
   518G11  C0C235357   6.805   8.927  12.297
   518G11  C0C335358   6.824   8.830  12.189
   518G11  C0DY35359   6.929   8.818  12.095
   518G11  H01635360   7.017   8.876  12.068
   518G11  C0DX35361   6.894   8.698  12.021
   518G11  C0DW35362   6.978   8.647  11.921
   518G11  C0BY35363   6.559   8.722  12.483
   518G11  C0DB35364   6.734   8.720  12.166
   518G11  C0CC35365   6.494   8.529  12.348
   518G11  C0D735366   6.517   8.367  12.115
   518G11  C0DZ35367   6.768   8.641  12.060
   518G11  C0DM35368   6.579   8.285  11.870
   518G11  C0DQ35369   6.802   8.548  11.774
   518G11  C0DV35370   6.913   8.633  11.797
   518G11  C0E035371   7.121   8.686  11.893
   518G11  C0FO35372   7.295   8.621  11.579
   518G11  C0E335373   7.223   8.583  11.913
   518G11  H01735374   7.206   8.506  11.987
   518G11  C0GV35375   7.394   8.520  11.605
   518G11  C0ES35376   7.208   8.588  11.469
   518G11  C0GQ35377   7.456   8.388  11.279
   518G11  C0FJ35378   7.209   8.438  11.008
   518G11  C0ED35379   7.053   8.489  11.239
   518G11  C0ER35380   6.791   8.561  11.005
   518G11  C0EP35381   6.659   8.401  11.089
   518G11  C0E635382   6.867   8.480  11.409
   518G11  C0DE35383   6.670   8.296  11.542
   518G11  C0EA35384   6.516   8.214  11.193
   518G11  C0DF35385   6.603   8.176  11.559
   518G11  C08035386   6.351   7.983  11.390
   518G11  C0DO35387   6.510   8.142  11.666
   518G11  C0DJ35388   6.329   8.024  11.844
   518G11  C07K35389   6.173   7.857  11.547
   518G11  C07W35390   6.147   7.904  11.919
   518G11  C08335391   5.943   7.716  11.872
   518G11  C07J35392   6.064   7.766  11.527
   518G11  C06O35393   5.840   7.596  11.485
   518G11  C06M35394   5.802   7.587  11.721
   528G11  C07135395   8.254   4.945  10.614
   528G11  C07L35396   8.227   5.084  10.620
   528G11  C07M35397   8.274   5.165  10.515
   528G11  C07Y35398   8.257   5.304  10.528
   528G11  C08135399   8.215   5.365  10.648
   528G11  C08235400   8.211   5.510  10.650
   528G11  C0DI35401   8.176   5.599  10.764
   528G11  C0DH35402   8.119   5.580  10.893
   528G11  C0DG35403   8.116   5.701  10.975
   528G11  C0E935404   8.008   5.755  11.057
   528G11  C0E835405   8.000   5.902  11.017
   528G11  C0E735406   7.914   6.004  11.074
   528G11  C0EB35407   7.830   5.975  11.192
   528G11  C0EF35408   7.733   6.060  11.256
   528G11  C0EE35409   7.644   6.159  11.210
   528G11  C0FD35410   7.507   6.162  11.260
   528G11  C0FE35411   7.438   6.063  11.332
   528G11  H01B35412   7.501   5.979  11.360
   528G11  C0FF35413   7.313   6.065  11.383
   528G11  H01A35414   7.280   5.988  11.452
   528G11  C0FG35415   7.241   6.176  11.346
   528G11  H01835416   7.137   6.188  11.372
   528G11  C0FH35417   7.288   6.272  11.255
   528G11  C0FI35418   7.213   6.382  11.197
   528G11  H01935419   7.108   6.382  11.221
   528G11  O00K35420   7.266   6.477  11.115
   528G11  C0FL35421   7.403   6.481  11.099
   528G11  C0FK35422   7.488   6.374  11.146
   528G11  C0FM35423   7.625   6.374  11.110
   528G11  C0FN35424   7.680   6.486  11.047
   528G11  C0FP35425   7.593   6.588  10.996
   528G11  C0GO35426   7.636   6.690  10.917
   528G11  C0GN35427   7.560   6.776  10.837
   528G11  C0GR35428   7.421   6.764  10.860
   528G11  C0GS35429   7.332   6.846  10.785
   528G11  H01Q35430   7.226   6.837  10.806
   528G11  C0GT35431   7.384   6.946  10.700
   528G11  H01O35432   7.316   7.011  10.649
   528G11  C0GU35433   7.525   6.944  10.672
   528G11  H01P35434   7.562   7.005  10.592
   528G11  O00L35435   7.373   6.670  10.948
   528G11  C0GM35436   7.616   6.865  10.744
   528G11  C0GL35437   7.761   6.865  10.723
   528G11  H01R35438   7.809   6.931  10.652
   528G11  C0GK35439   7.839   6.785  10.814
   528G11  C0GP35440   7.974   6.745  10.819
   528G11  C0E235441   7.990   6.662  10.934
   528G11  C0E135442   8.100   6.582  10.909
   528G11  C0DU35443   8.090   6.443  10.903
   528G11  C0DT35444   8.009   6.353  10.974
   528G11  C0E435445   7.890   6.383  11.036
   528G11  C0E535446   7.835   6.263  11.072
   528G11  C0DS35447   8.018   6.214  10.964
   528G11  C0DR35448   8.101   6.170  10.860
   528G11  C0DD35449   8.105   6.040  10.811
   528G11  C0DC35450   8.195   6.052  10.692
   528G11  C0DP35451   8.232   6.190  10.660
   528G11  C0DA35452   8.321   6.238  10.550
   528G11  C0D935453   8.382   6.167  10.436
   528G11  C0CR35454   8.452   6.244  10.329
   528G11  C0C035455   8.484   6.375  10.343
   528G11  C0BZ35456   8.553   6.452  10.252
   528G11  C0C135457   8.576   6.595  10.275
   528G11  C0C735458   8.666   6.663  10.196
   528G11  C0C635459   8.698   6.798  10.220
   528G11  C0C935460   8.802   6.859  10.149
   528G11  C0B835461   8.832   6.994  10.176
   528G11  C0B735462   8.926   7.068  10.097
   528G11  C0B635463   8.973   7.205  10.103
   528G11  C0B535464   8.876   7.307  10.092
   528G11  H00Z35465   8.770   7.306  10.113
   528G11  C0B435466   8.943   7.409  10.015
   528G11  H01035467   8.902   7.496   9.966
   528G11  C0B335468   9.084   7.381   9.999
   528G11  C0AP35469   9.155   7.384   9.866
   528G11  C0AQ35470   9.189   7.249   9.853
   528G11  C0AR35471   9.216   7.198   9.722
   528G11  C0AS35472   9.208   7.062   9.720
   528G11  C0AT35473   9.143   6.988   9.814
   528G11  C0BA35474   9.107   7.040   9.931
   528G11  C0AU35475   9.090   6.866   9.775
   528G11  C0BE35476   9.002   6.798   9.855
   528G11  C0BI35477   8.948   6.675   9.805
   528G11  C0BJ35478   8.983   6.628   9.680
   528G11  C0BK35479   8.933   6.504   9.641
   528G11  C0BW35480   8.853   6.425   9.731
   528G11  C0BV35481   8.816   6.479   9.854
   528G11  C0BU35482   8.739   6.406   9.940
   528G11  C0BX35483   8.687   6.466  10.054
   528G11  C0BT35484   8.701   6.275   9.909
   528G11  C0CD35485   8.628   6.196  10.000
   528G11  C0CB35486   8.575   6.256  10.112
   528G11  C0CE35487   8.599   6.063   9.967
   528G11  C0CK35488   8.661   6.006   9.856
   528G11  C0BS35489   8.739   6.084   9.760
   528G11  C0CJ35490   8.788   6.028   9.643
   528G11  C0BP35491   8.839   6.114   9.545
   528G11  C0CI35492   8.887   6.061   9.426
   528G11  C0CH35493   8.907   6.157   9.323
   528G11  H01235494   8.934   6.115   9.227
   528G11  C0BN35495   8.939   6.291   9.349
   528G11  C0CG35496   9.019   6.364   9.261
   528G11  C0CF35497   9.067   6.310   9.135
   528G11  H01335498   9.046   6.211   9.097
   528G11  O00G35499   9.152   6.374   9.051
   528G11  C0AA35500   9.180   6.504   9.089
   528G11  C0A935501   9.257   6.582   8.996
   528G11  H00U35502   9.281   6.530   8.904
   528G11  C0A835503   9.299   6.712   9.021
   528G11  H00V35504   9.353   6.752   8.937
   528G11  C0A735505   9.261   6.778   9.146
   528G11  C0A635506   9.194   6.697   9.248
   528G11  C0A535507   9.165   6.738   9.378
   528G11  C0A435508   9.214   6.869   9.424
   528G11  C0A335509   9.277   6.995   9.373
   528G11  C0A235510   9.277   7.025   9.239
   528G11  C0A135511   9.308   7.153   9.187
   528G11  C0A035512   9.310   7.289   9.236
   528G11  C09Z35513   9.343   7.386   9.141
   528G11  C09Y35514   9.344   7.523   9.175
   528G11  H00Y35515   9.373   7.601   9.106
   528G11  C09X35516   9.300   7.554   9.298
   528G11  C09W35517   9.286   7.695   9.321
   528G11  H00R35518   9.310   7.767   9.245
   528G11  C0AX35519   9.245   7.751   9.443
   528G11  H00S35520   9.234   7.858   9.457
   528G11  C0AW35521   9.215   7.653   9.543
   528G11  H00T35522   9.196   7.692   9.641
   528G11  C0AN35523   9.231   7.509   9.528
   528G11  C0AO35524   9.216   7.421   9.638
   528G11  C0AM35525   9.268   7.463   9.399
   528G11  C0B235526   9.375   7.360   9.004
   528G11  O00D35527   9.395   7.451   8.923
   528G11  C0B135528   9.376   7.221   8.960
   528G11  H00W35529   9.414   7.201   8.861
   528G11  C0AL35530   9.281   7.324   9.375
   528G11  C0AK35531   9.264   7.238   9.483
   528G11  C0B035532   9.339   7.127   9.051
   528G11  C0AZ35533   9.331   6.989   9.022
   528G11  H00X35534   9.367   6.948   8.929
   528G11  C0AJ35535   9.270   7.093   9.477
   528G11  C0AH35536   9.202   6.891   9.563
   528G11  C0AE35537   9.092   6.659   9.469
   528G11  C0AD35538   9.036   6.538   9.428
   528G11  C0AY35539   9.282   6.923   9.140
   528G11  C0AB35540   9.146   6.565   9.215
   528G11  C0AC35541   9.064   6.493   9.299
   528G11  C0BM35542   8.910   6.336   9.478
   528G11  C0CM35543   8.915   5.924   9.416
   528G11  C09M35544   8.844   5.833   9.497
   528G11  C09835545   8.826   5.703   9.443
   528G11  C08R35546   8.771   5.583   9.502
   528G11  C08Q35547   8.765   5.472   9.414
   528G11  C08P35548   8.793   5.327   9.434
   528G11  C08Y35549   8.856   5.255   9.328
   528G11  C09735550   8.906   5.330   9.219
   528G11  C09635551   9.029   5.279   9.186
   528G11  C09035552   9.047   5.159   9.262
   528G11  C09535553   9.165   5.078   9.260
   528G11  C09435554   9.173   4.956   9.337
   528G11  C08J35555   9.108   4.907   9.453
   528G11  C08I35556   9.100   4.763   9.437
   528G11  C08H35557   8.994   4.721   9.531
   528G11  C08G35558   8.914   4.840   9.566
   528G11  C08F35559   8.801   4.878   9.647
   528G11  C08E35560   8.740   4.787   9.738
   528G11  C05935561   8.755   4.646   9.736
   528G11  C05835562   8.687   4.568   9.835
   528G11  C05735563   8.712   4.429   9.860
   528G11  C05635564   8.803   4.370   9.774
   528G11  C05535565   8.849   4.419   9.661
   528G11  C05435566   8.962   4.358   9.617
   528G11  C05335567   8.988   4.252   9.718
   528G11  C05235568   9.109   4.169   9.733
   528G11  C05135569   9.228   4.191   9.656
   528G11  C05U35570   9.254   4.301   9.562
   528G11  C05T35571   9.181   4.417   9.529
   528G11  C06K35572   9.255   4.469   9.415
   528G11  H00J35573   9.218   4.546   9.349
   528G11  C06L35574   9.375   4.405   9.391
   528G11  H00I35575   9.452   4.432   9.320
   528G11  C05V35576   9.370   4.292   9.479
   528G11  C06J35577   9.449   4.180   9.480
   528G11  H00K35578   9.527   4.161   9.408
   528G11  C05X35579   9.435   4.081   9.572
   528G11  C06I35580   9.526   3.975   9.599
   528G11  H00L35581   9.605   3.975   9.526
   528G11  C04Z35582   9.529   3.887   9.709
   528G11  C06H35583   9.645   3.804   9.733
   528G11  H00H35584   9.725   3.799   9.661
   528G11  C04Y35585   9.649   3.738   9.863
   528G11  C06G35586   9.770   3.665   9.893
   528G11  O00935587   9.868   3.656   9.819
   528G11  O00835588   9.771   3.605  10.016
   528G11  C04P35589   9.670   3.604  10.106
   528G11  C04J35590   9.666   3.531  10.226
   528G11  C04Q35591   9.766   3.450  10.283
   528G11  H00E35592   9.865   3.444  10.240
   528G11  C04M35593   9.751   3.378  10.402
   528G11  C04R35594   9.848   3.290  10.464
   528G11  H00F35595   9.938   3.278  10.406
   528G11  C04S35596   9.821   3.223  10.577
   528G11  H00G35597   9.885   3.145  10.614
   528G11  O00735598   9.712   3.250  10.651
   528G11  C03V35599   9.614   3.318  10.590
   528G11  C03U35600   9.494   3.334  10.661
   528G11  O00635601   9.489   3.270  10.781
   528G11  C03F35602   9.379   3.293  10.854
   528G11  C03E35603   9.268   3.379  10.816
   528G11  C03D35604   9.278   3.442  10.694
   528G11  C03C35605   9.173   3.532  10.655
   528G11  C03B35606   9.068   3.546  10.750
   528G11  C03A35607   8.955   3.619  10.716
   528G11  C03935608   8.942   3.688  10.588
   528G11  C03835609   8.815   3.761  10.606
   528G11  C03735610   8.768   3.732  10.733
   528G11  C03635611   8.653   3.786  10.775
   528G11  C02R35612   8.598   3.779  10.900
   528G11  C03535613   8.496   3.876  10.895
   528G11  C03R35614   8.485   3.940  10.771
   528G11  C03S35615   8.440   4.069  10.751
   528G11  C04935616   8.474   4.134  10.641
   528G11  C04835617   8.564   4.062  10.550
   528G11  C03P35618   8.639   3.939  10.583
   528G11  C04735619   8.585   4.131  10.427
   528G11  C04635620   8.661   4.087  10.324
   528G11  C04535621   8.753   3.984  10.311
   528G11  C03T35622   8.807   3.889  10.401
   528G11  C04435623   8.913   3.824  10.345
   528G11  C04335624   8.913   3.862  10.206
   528G11  C04235625   9.040   3.851  10.150
   528G11  C04135626   9.110   3.774  10.250
   528G11  C04035627   9.234   3.711  10.228
   528G11  C03Z35628   9.311   3.627  10.318
   528G11  C04H35629   9.437   3.610  10.256
   528G11  C04G35630   9.444   3.684  10.143
   528G11  C03N35631   9.291   3.568  10.447
   528G11  C03Y35632   9.396   3.479  10.491
   528G11  C03X35633   9.525   3.470  10.426
   528G11  C04F35634   9.322   3.740  10.116
   528G11  C04E35635   9.316   3.824  10.008
   528G11  C04O35636   9.428   3.820   9.917
   528G11  C04D35637   9.214   3.908   9.974
   528G11  C04V35638   9.224   3.999   9.863
   528G11  C04W35639   9.329   3.999   9.768
   528G11  C04C35640   9.082   3.916  10.022
   528G11  C04L35641   9.013   4.015   9.941
   528G11  C04U35642   8.883   4.062   9.963
   528G11  C05Q35643   8.832   4.181   9.912
   528G11  C05P35644   8.737   4.232   9.991
   528G11  C04T35645   8.717   4.153  10.104
   528G11  C04B35646   8.808   4.053  10.084
   528G11  C03M35647   9.034   3.751  10.375
   528G11  C04A35648   8.825   3.969  10.191
   528G11  C05H35649   8.635   4.169  10.216
   528G11  C05G35650   8.547   4.269  10.262
   528G11  C05F35651   8.515   4.385  10.189
   528G11  C05E35652   8.468   4.504  10.244
   528G11  C05L35653   8.427   4.557  10.375
   528G11  C05K35654   8.410   4.476  10.494
   528G11  C05J35655   8.447   4.340  10.505
   528G11  C06635656   8.355   4.538  10.608
   528G11  C06535657   8.324   4.676  10.608
   528G11  C06435658   8.339   4.750  10.493
   528G11  C06N35659   8.272   4.732  10.724
   528G11  C06935660   8.237   4.653  10.836
   528G11  C06P35661   8.172   4.709  10.951
   528G11  C06R35662   8.148   4.634  11.067
   528G11  C06B35663   8.186   4.503  11.070
   528G11  C06S35664   8.169   4.426  11.187
   528G11  C02G35665   8.221   4.301  11.197
   528G11  C02F35666   8.213   4.233  11.315
   528G11  C02735667   8.168   4.293  11.430
   528G11  C02635668   8.173   4.225  11.550
   528G11  C00E35669   8.127   4.288  11.667
   528G11  C00D35670   8.144   4.224  11.790
   528G11  C00C35671   8.125   4.299  11.901
   528G11  C00B35672   8.076   4.432  11.905
   528G11  C01535673   8.063   4.493  11.782
   528G11  C07F35674   8.030   4.628  11.775
   528G11  C07E35675   8.028   4.695  11.654
   528G11  C06W35676   8.055   4.626  11.538
   528G11  C06V35677   8.081   4.488  11.539
   528G11  C06X35678   8.045   4.692  11.418
   528G11  C07B35679   8.017   4.827  11.416
   528G11  C07C35680   7.992   4.897  11.536
   528G11  C0FU35681   7.963   5.037  11.531
   528G11  C0F735682   7.933   5.101  11.651
   528G11  C0F635683   7.906   5.237  11.644
   528G11  C0F835684   7.876   5.306  11.762
   528G11  C0F935685   7.860   5.443  11.763
   528G11  C0FA35686   7.837   5.509  11.885
   528G11  C0FZ35687   7.834   5.436  12.003
   528G11  C0G035688   7.818   5.503  12.126
   528G11  C0GD35689   7.801   5.640  12.134
   528G11  C0FC35690   7.797   5.709  12.012
   528G11  C0GH35691   7.769   5.851  12.017
   528G11  C0EY35692   7.751   5.915  11.896
   528G11  C0EX35693   7.698   6.046  11.893
   528G11  C0EW35694   7.680   6.103  11.762
   528G11  C0FR35695   7.615   6.229  11.755
   528G11  H01D35696   7.595   6.285  11.665
   528G11  C0FS35697   7.576   6.296  11.869
   528G11  H01C35698   7.526   6.391  11.858
   528G11  C0GJ35699   7.608   6.240  11.995
   528G11  H01N35700   7.578   6.296  12.083
   528G11  C0EV35701   7.721   6.044  11.648
   528G11  C0FT35702   7.697   6.107  11.521
   528G11  H01E35703   7.657   6.207  11.505
   528G11  C0EU35704   7.766   5.914  11.652
   528G11  C0ET35705   7.806   5.848  11.535
   528G11  C0EI35706   7.843   5.716  11.524
   528G11  C0F135707   7.842   5.650  11.645
   528G11  C0F035708   7.817   5.714  11.771
   528G11  C0EH35709   7.879   5.662  11.396
   528G11  C0EG35710   7.891   5.734  11.274
   528G11  C0EJ35711   7.903   5.523  11.398
   528G11  C0F335712   7.892   5.449  11.520
   528G11  C0EK35713   7.935   5.455  11.279
   528G11  C0EL35714   7.959   5.527  11.158
   528G11  C0EM35715   7.996   5.443  11.050
   528G11  C0EN35716   7.991   5.303  11.062
   528G11  C07I35717   8.046   5.241  10.949
   528G11  C07435718   8.086   5.108  10.953
   528G11  C07335719   8.139   5.057  10.838
   528G11  C07235720   8.162   4.918  10.836
   528G11  C07535721   8.059   5.036  11.066
   528G11  C07635722   8.011   5.100  11.183
   528G11  C07835723   8.000   5.034  11.298
   528G11  C07G35724   8.085   4.900  11.065
   528G11  C07035725   8.063   4.832  11.182
   528G11  C07Z35726   8.088   5.335  10.858
   528G11  C07735727   7.983   5.237  11.180
   528G11  C0EO35728   7.956   5.317  11.288
   528G11  C0F435729   7.937   5.244  11.405
   528G11  C0EQ35730   7.799   5.918  11.413
   528G11  C0FQ35731   7.656   6.113  12.008
   528G11  C0GI35732   7.687   6.043  12.124
   528G11  H01L35733   7.659   6.092  12.216
   528G11  C0EZ35734   7.778   5.847  11.774
   528G11  C0GG35735   7.738   5.915  12.135
   528G11  C0GF35736   7.753   5.844  12.254
   528G11  H01M35737   7.735   5.887  12.351
   528G11  C0GE35738   7.791   5.713  12.257
   528G11  H01K35739   7.794   5.663  12.353
   528G11  O00J35740   7.801   5.436  12.241
   528G11  C0GA35741   7.825   5.298  12.234
   528G11  C0G935742   7.819   5.232  12.358
   528G11  H01H35743   7.793   5.295  12.441
   528G11  C0G835744   7.841   5.099  12.373
   528G11  C0G735745   7.834   5.028  12.495
   528G11  H01I35746   7.813   5.077  12.590
   528G11  O00I35747   7.847   4.891  12.499
   528G11  C0G635748   7.891   4.830  12.380
   528G11  H01J35749   7.878   4.723  12.382
   528G11  C02D35750   7.901   4.895  12.255
   528G11  C02C35751   7.931   4.825  12.136
   528G11  C01735752   7.991   4.699  12.137
   528G11  C01635753   8.014   4.625  12.017
   528G11  O00135754   8.020   4.638  12.256
   528G11  C01835755   8.084   4.516  12.271
   528G11  C00935756   8.107   4.440  12.154
   528G11  C00835757   8.160   4.310  12.141
   528G11  C00735758   8.232   4.221  12.231
   528G11  C00635759   8.221   4.230  12.372
   528G11  C00535760   8.267   4.132  12.462
   528G11  C00435761   8.345   4.015  12.440
   528G11  C00335762   8.388   3.945  12.312
   528G11  C00235763   8.493   3.845  12.309
   528G11  C00P35764   8.532   3.786  12.189
   528G11  C00O35765   8.646   3.704  12.185
   528G11  C00N35766   8.699   3.650  12.071
   528G11  C01035767   8.820   3.590  12.066
   528G11  C01135768   8.883   3.561  11.948
   528G11  C01Q35769   9.019   3.530  11.947
   528G11  C01U35770   9.101   3.518  12.059
   528G11  C01235771   9.032   3.541  12.181
   528G11  H00035772   9.081   3.538  12.277
   528G11  C01V35773   9.242   3.499  12.049
   528G11  H00735774   9.303   3.500  12.138
   528G11  O00535775   9.305   3.508  11.925
   528G11  C01W35776   9.225   3.513  11.814
   528G11  C03135777   9.295   3.524  11.690
   528G11  C03235778   9.224   3.561  11.574
   528G11  H00A35779   9.275   3.578  11.481
   528G11  C03335780   9.087   3.570  11.586
   528G11  H00B35781   9.029   3.609  11.503
   528G11  C01O35782   9.012   3.533  11.702
   528G11  C01N35783   8.873   3.538  11.708
   528G11  C01M35784   8.787   3.529  11.586
   528G11  C01L35785   8.787   3.498  11.441
   528G11  C01K35786   8.664   3.546  11.389
   528G11  C01Y35787   8.655   3.600  11.263
   528G11  C02I35788   8.760   3.576  11.169
   528G11  C02N35789   8.743   3.629  11.040
   528G11  C02M35790   8.843   3.594  10.941
   528G11  C02L35791   8.957   3.518  10.975
   528G11  C02K35792   8.964   3.463  11.108
   528G11  C02U35793   9.075   3.377  11.135
   528G11  C02V35794   9.168   3.348  11.032
   528G11  C03H35795   9.275   3.257  11.059
   528G11  H00C35796   9.298   3.200  11.148
   528G11  C02W35797   9.098   3.338  11.266
   528G11  C02X35798   9.001   3.380  11.358
   528G11  C02Y35799   9.042   3.311  11.475
   528G11  H00835800   8.995   3.303  11.572
   528G11  C02Z35801   9.187   3.271  11.455
   528G11  O00435802   9.272   3.221  11.533
   528G11  O00335803   9.210   3.293  11.325
   528G11  C02J35804   8.869   3.498  11.207
   528G11  C01Z35805   8.554   3.696  11.246
   528G11  C02035806   8.473   3.743  11.353
   528G11  C01I35807   8.492   3.691  11.477
   528G11  C01H35808   8.443   3.748  11.592
   528G11  C00K35809   8.492   3.710  11.719
   528G11  C01S35810   8.605   3.633  11.733
   528G11  C01435811   8.681   3.624  11.838
   528G11  C00J35812   8.452   3.779  11.833
   528G11  C00I35813   8.359   3.874  11.821
   528G11  C00H35814   8.316   3.917  11.694
   528G11  C00G35815   8.242   4.032  11.680
   528G11  C00S35816   8.322   3.941  11.936
   528G11  C00T35817   8.236   4.045  11.923
   528G11  C00U35818   8.210   4.119  12.034
   528G11  C00R35819   8.373   3.915  12.065
   528G11  C00L35820   8.519   3.757  11.950
   528G11  C02835821   8.360   3.856  11.579
   528G11  C02335822   8.327   3.908  11.452
   528G11  C02435823   8.265   4.035  11.445
   528G11  C02135824   8.383   3.851  11.343
   528G11  C02235825   8.380   3.915  11.225
   528G11  C02H35826   8.319   4.040  11.211
   528G11  C03035827   8.318   4.113  11.092
   528G11  C03435828   8.377   4.063  10.982
   528G11  C02P35829   8.451   3.866  11.116
   528G11  C02B35830   8.542   3.760  11.127
   528G11  C01J35831   8.582   3.583  11.494
   528G11  C01X35832   8.889   3.460  11.343
   528G11  C01T35833   8.649   3.568  11.612
   528G11  H00935834   9.401   3.505  11.685
   528G11  C01P35835   9.083   3.524  11.820
   528G11  C01R35836   8.807   3.567  11.833
   528G11  C00Z35837   8.894   3.576  12.189
   528G11  O00035838   8.831   3.599  12.308
   528G11  C00M35839   8.629   3.671  11.954
   528G11  C00Y35840   8.720   3.674  12.302
   528G11  C01335841   8.659   3.724  12.421
   528G11  H00135842   8.708   3.709  12.516
   528G11  C00Q35843   8.472   3.818  12.067
   528G11  C00135844   8.550   3.807  12.426
   528G11  C00035845   8.500   3.858  12.549
   528G11  H00635846   8.539   3.824  12.643
   528G11  C00W35847   8.338   3.980  12.181
   528G11  C01G35848   8.404   3.954  12.555
   528G11  H00535849   8.392   3.993  12.655
   528G11  C01C35850   8.225   4.171  12.594
   528G11  H00235851   8.238   4.118  12.687
   528G11  C01B35852   8.161   4.302  12.584
   528G11  C01D35853   8.104   4.385  12.680
   528G11  H00335854   8.109   4.362  12.786
   528G11  C01E35855   8.053   4.501  12.635
   528G11  H00435856   8.025   4.577  12.707
   528G11  O00235857   8.052   4.541  12.507
   528G11  C01A35858   8.150   4.335  12.447
   528G11  C00V35859   8.270   4.101  12.157
   528G11  C01935860   8.100   4.460  12.403
   528G11  C02E35861   7.926   4.892  12.012
   528G11  C0FX35862   7.896   5.027  12.008
   528G11  C0FW35863   7.895   5.096  11.891
   528G11  C0GB35864   7.870   5.098  12.122
   528G11  C0G335865   7.964   4.826  11.894
   528G11  C07H35866   7.964   4.897  11.776
   528G11  C0GC35867   7.870   5.032  12.248
   528G11  C0G235868   7.845   5.232  12.115
   528G11  C0G135869   7.845   5.300  11.999
   528G11  C0FB35870   7.820   5.647  11.889
   528G11  C0F235871   7.860   5.511  11.639
   528G11  C0FY35872   7.864   5.233  11.883
   528G11  C0F535873   7.912   5.309  11.524
   528G11  C0FV35874   7.932   5.033  11.771
   528G11  C07935875   7.968   5.109  11.409
   528G11  C07A35876   8.017   4.894  11.298
   528G11  C06Y35877   8.093   4.627  11.301
   528G11  C07D35878   7.999   4.829  11.656
   528G11  C01F35879   7.998   4.690  11.892
   528G11  C00A35880   8.064   4.496  12.028
   528G11  C00X35881   8.157   4.242  12.019
   528G11  C00F35882   8.202   4.099  11.800
   528G11  C02935883   8.084   4.420  11.661
   528G11  C02535884   8.226   4.096  11.558
   528G11  C06U35885   8.128   4.426  11.425
   528G11  C02A35886   8.260   4.102  11.323
   528G11  C05Y35887   8.272   4.243  11.086
   528G11  C05Z35888   8.294   4.317  10.966
   528G11  C06035889   8.343   4.259  10.852
   528G11  C06235890   8.362   4.329  10.732
   528G11  C06T35891   8.128   4.490  11.300
   528G11  C06A35892   8.250   4.450  10.959
   528G11  C06Z35893   8.104   4.697  11.185
   528G11  C06Q35894   8.135   4.841  10.948
   528G11  C06835895   8.270   4.516  10.839
   528G11  C06735896   8.328   4.460  10.726
   528G11  C06335897   8.393   4.694  10.377
   528G11  C06C35898   8.422   4.779  10.268
   528G11  C06D35899   8.478   4.733  10.154
   528G11  C06E35900   8.523   4.813  10.048
   528G11  C07Q35901   8.504   4.949  10.057
   528G11  C07P35902   8.438   4.997  10.170
   528G11  C07T35903   8.423   5.135  10.180
   528G11  C07U35904   8.359   5.188  10.287
   528G11  C07V35905   8.342   5.326  10.299
   528G11  C08435906   8.395   5.411  10.202
   528G11  C08C35907   8.460   5.357  10.092
   528G11  C08B35908   8.518   5.437  10.000
   528G11  C08A35909   8.577   5.380   9.895
   528G11  C08935910   8.594   5.244   9.872
   528G11  C08835911   8.660   5.194   9.757
   528G11  C08735912   8.684   5.060   9.746
   528G11  C08635913   8.640   4.975   9.851
   528G11  C08X35914   8.718   5.288   9.662
   528G11  C08T35915   8.714   5.430   9.690
   528G11  C08D35916   8.540   5.165   9.968
   528G11  C08U35917   8.641   5.464   9.800
   528G11  C08V35918   8.645   5.598   9.820
   528G11  C0CY35919   8.571   5.660   9.920
   528G11  C0CX35920   8.582   5.799   9.928
   528G11  C0CW35921   8.523   5.857  10.043
   528G11  C0CV35922   8.464   5.778  10.136
   528G11  C0D435923   8.452   5.636  10.120
   528G11  C0CU35924   8.415   5.836  10.252
   528G11  C0CT35925   8.422   5.975  10.279
   528G11  C0CS35926   8.480   6.054  10.178
   528G11  C0D635927   8.360   5.748  10.335
   528G11  C0EC35928   8.346   5.606  10.327
   528G11  C07X35929   8.293   5.525  10.425
   528G11  C0DL35930   8.300   5.803  10.446
   528G11  C0DK35931   8.251   5.724  10.551
   528G11  C0DN35932   8.219   5.807  10.652
   528G11  C0D835933   8.310   5.936  10.490
   528G11  C08W35934   8.717   5.665   9.722
   528G11  C0CQ35935   8.716   5.811   9.722
   528G11  C09335936   8.511   5.577  10.012
   528G11  C09235937   8.395   5.553  10.216
   528G11  C08535938   8.474   5.221  10.080
   528G11  C07S35939   8.562   5.027   9.958
   528G11  C06F35940   8.598   4.764   9.942
   528G11  C07O35941   8.397   4.913  10.274
   528G11  C07N35942   8.341   4.970  10.390
   528G11  C05D35943   8.483   4.598  10.141
   528G11  C05C35944   8.553   4.553  10.032
   528G11  C05N35945   8.573   4.419  10.059
   528G11  C05M35946   8.512   4.251  10.399
   528G11  C05I35947   8.426   4.266  10.623
   528G11  C06135948   8.384   4.130  10.866
   528G11  C02Q35949   8.436   3.938  11.004
   528G11  C02O35950   8.627   3.712  11.024
   528G11  C03Q35951   8.593   3.889  10.707
   528G11  C03O35952   8.750   3.868  10.524
   528G11  C03L35953   9.055   3.680  10.496
   528G11  C02S35954   8.849   3.648  10.808
   528G11  C02T35955   9.057   3.492  10.879
   528G11  C03K35956   9.175   3.598  10.527
   528G11  C03I35957   9.161   3.406  10.905
   528G11  C03G35958   9.385   3.234  10.980
   528G11  H00D35959   9.474   3.182  11.014
   528G11  C03J35960   9.388   3.417  10.613
   528G11  C03W35961   9.630   3.391  10.472
   528G11  C04I35962   9.547   3.538  10.305
   528G11  C04K35963   9.558   3.674  10.070
   528G11  C04N35964   9.546   3.746   9.950
   528G11  C04X35965   9.427   3.899   9.798
   528G11  C05035966   9.332   4.097   9.664
   528G11  C05W35967   9.107   4.070   9.839
   528G11  C05S35968   9.046   4.459   9.569
   528G11  C05R35969   8.877   4.253   9.803
   528G11  C05O35970   8.669   4.352   9.972
   528G11  C05B35971   8.612   4.628   9.929
   528G11  C05A35972   8.852   4.563   9.662
   528G11  C07R35973   8.655   4.841   9.839
   528G11  C08N35974   8.763   5.014   9.648
   528G11  C08M35975   8.808   5.102   9.547
   528G11  C08L35976   8.911   5.060   9.460
   528G11  C09135977   8.973   4.588   9.586
   528G11  C09K35978   9.109   4.739   9.293
   528G11  H00M35979   9.063   4.656   9.241
   528G11  C08K35980   8.983   4.948   9.497
   528G11  C09J35981   9.183   4.850   9.240
   528G11  C09I35982   9.224   4.908   9.112
   528G11  C09L35983   9.282   4.861   8.989
   528G11  H00N35984   9.302   4.755   8.974
   528G11  C09Q35985   9.318   4.951   8.900
   528G11  H00O35986   9.363   4.903   8.814
   528G11  O00B35987   9.307   5.093   8.915
   528G11  C09G35988   9.243   5.141   9.026
   528G11  C09F35989   9.229   5.284   9.035
   528G11  O00A35990   9.294   5.355   8.943
   528G11  C09P35991   9.293   5.496   8.951
   528G11  H00P35992   9.327   5.539   8.858
   528G11  C09O35993   9.215   5.569   9.049
   528G11  C09D35994   9.105   5.497   9.103
   528G11  C09C35995   8.986   5.547   9.170
   528G11  C09N35996   8.949   5.674   9.217
   528G11  C09T35997   9.047   5.775   9.245
   528G11  C09S35998   9.175   5.783   9.181
   528G11  C0CP35999   9.222   5.907   9.221
   528G11  C0CN36000   9.140   5.970   9.312
   528G11  C0CO36001   9.188   6.089   9.371
   528G11  H01436002   9.129   6.150   9.438
   528G11  C0CZ36003   9.312   6.140   9.327
   528G11  H01536004   9.347   6.231   9.372
   528G11  C0D036005   9.392   6.075   9.229
   528G11  C0G536006   9.519   6.120   9.173
   528G11  H01F36007   9.560   6.219   9.189
   528G11  C0G436008   9.602   6.037   9.103
   528G11  H01G36009   9.694   6.080   9.067
   528G11  O00H36010   9.562   5.910   9.063
   528G11  C0D236011   9.433   5.869   9.096
   528G11  C09V36012   9.375   5.751   9.047
   528G11  H00Q36013   9.435   5.695   8.976
   528G11  C0D136014   9.348   5.946   9.175
   528G11  C09R36015   9.251   5.704   9.090
   528G11  C09H36016   9.215   5.053   9.130
   528G11  C09E36017   9.124   5.351   9.106
   528G11  C09B36018   8.882   5.459   9.205
   528G11  C08Z36019   8.940   5.149   9.355
   528G11  C08O36020   8.771   5.241   9.542
   528G11  C09A36021   8.788   5.533   9.284
   528G11  C08S36022   8.760   5.559   9.638
   528G11  C09936023   8.839   5.661   9.302
   528G11  C09U36024   9.023   5.888   9.329
   528G11  C0BO36025   8.855   6.254   9.572
   528G11  C0CL36026   8.781   5.886   9.616
   528G11  C0D336027   8.644   5.871   9.832
   528G11  C0D536028   8.531   5.993  10.061
   528G11  C0BR36029   8.740   6.221   9.782
   528G11  C0BQ36030   8.814   6.302   9.694
   528G11  C0BL36031   8.961   6.456   9.515
   528G11  C0AF36032   9.066   6.701   9.599
   528G11  C0BH36033   8.859   6.606   9.885
   528G11  C0BG36034   8.812   6.665  10.008
   528G11  C0BD36035   8.954   6.861   9.968
   528G11  C0AG36036   9.118   6.816   9.648
   528G11  C0AI36037   9.231   7.022   9.591
   528G11  C0AV36038   9.235   7.283   9.612
   528G11  C0BB36039   9.147   7.169   9.962
   528G11  O00C36040   9.155   7.460   9.755
   528G11  C0BC36041   9.100   7.253  10.061
   528G11  C0B936042   9.004   6.986  10.009
   528G11  O00E36043   8.751   7.069  10.262
   528G11  C0CA36044   8.653   7.013  10.341
   528G11  O00F36045   8.597   7.090  10.421
   528G11  C0BF36046   8.857   6.796  10.047
   528G11  C0C536047   8.633   6.870  10.316
   528G11  C0C436048   8.543   6.801  10.402
   528G11  H01136049   8.496   6.840  10.491
   528G11  C0C836050   8.720   6.599  10.083
   528G11  C0C236051   8.514   6.665  10.381
   528G11  C0C336052   8.437   6.582  10.464
   528G11  C0DY36053   8.363   6.623  10.571
   528G11  H01636054   8.352   6.716  10.625
   528G11  C0DX36055   8.309   6.496  10.619
   528G11  C0DW36056   8.215   6.508  10.722
   528G11  C0BY36057   8.605   6.395  10.141
   528G11  C0DB36058   8.424   6.443  10.447
   528G11  C0CC36059   8.501   6.184  10.209
   528G11  C0D736060   8.370   6.031  10.399
   528G11  C0DZ36061   8.341   6.379  10.543
   528G11  C0DM36062   8.244   5.944  10.613
   528G11  C0DQ36063   8.167   6.258  10.767
   528G11  C0DV36064   8.167   6.396  10.797
   528G11  C0E036065   8.164   6.626  10.789
   528G11  C0FO36066   7.865   6.629  10.990
   528G11  C0E336067   8.081   6.732  10.732
   528G11  H01736068   8.086   6.761  10.628
   528G11  C0GV36069   7.777   6.717  10.923
   528G11  C0ES36070   7.815   6.502  11.036
   528G11  C0GQ36071   7.452   6.579  11.012
   528G11  C0FJ36072   7.428   6.270  11.223
   528G11  C0ED36073   7.703   6.263  11.136
   528G11  C0ER36074   7.734   6.037  11.404
   528G11  C0EP36075   7.844   5.870  11.289
   528G11  C0E636076   7.917   6.149  11.043
   528G11  C0DE36077   8.099   5.928  10.912
   528G11  C0EA36078   7.950   5.671  11.162
   528G11  C0DF36079   8.154   5.801  10.887
   528G11  C08036080   8.050   5.460  10.920
   528G11  C0DO36081   8.181   5.736  10.762
   528G11  C0DJ36082   8.248   5.586  10.541
   528G11  C07K36083   8.163   5.280  10.747
   528G11  C07W36084   8.293   5.385  10.416
   528G11  C08336085   8.326   5.108  10.395
   528G11  C07J36086   8.176   5.143  10.733
   528G11  C06O36087   8.232   4.861  10.724
   528G11  C06M36088   8.306   4.888  10.497
   538G11  C07136089   7.114   1.017  13.157
   538G11  C07L36090   7.051   1.103  13.244
   538G11  C07M36091   7.127   1.179  13.338
   538G11  C07Y36092   7.066   1.264  13.437
   538G11  C08136093   6.929   1.276  13.442
   538G11  C08236094   6.870   1.369  13.533
   538G11  C0DI36095   6.727   1.391  13.582
   538G11  C0DH36096   6.607   1.361  13.520
   538G11  C0DG36097   6.492   1.404  13.595
   538G11  C0E936098   6.367   1.464  13.555
   538G11  C0E836099   6.346   1.570  13.657
   538G11  C0E736100   6.222   1.649  13.687
   538G11  C0EB36101   6.096   1.614  13.629
   538G11  C0EF36102   5.961   1.635  13.680
   538G11  C0EE36103   5.914   1.653  13.811
   538G11  C0FD36104   5.803   1.585  13.854
   538G11  C0FE36105   5.755   1.468  13.790
   538G11  H01B36106   5.789   1.427  13.697
   538G11  C0FF36107   5.651   1.396  13.843
   538G11  H01A36108   5.624   1.307  13.787
   538G11  C0FG36109   5.603   1.439  13.966
   538G11  H01836110   5.533   1.374  14.016
   538G11  C0FH36111   5.638   1.558  14.029
   538G11  C0FI36112   5.578   1.613  14.154
   538G11  H01936113   5.500   1.554  14.201
   538G11  O00K36114   5.625   1.725  14.219
   538G11  C0FL36115   5.727   1.790  14.153
   538G11  C0FK36116   5.791   1.744  14.035
   538G11  C0FM36117   5.903   1.815  13.987
   538G11  C0FN36118   5.946   1.927  14.059
   538G11  C0FP36119   5.885   1.969  14.178
   538G11  C0GO36120   5.921   2.076  14.255
   538G11  C0GN36121   5.873   2.114  14.380
   538G11  C0GR36122   5.764   2.035  14.424
   538G11  C0GS36123   5.706   2.065  14.547
   538G11  H01Q36124   5.620   2.015  14.587
   538G11  C0GT36125   5.748   2.176  14.616
   538G11  H01O36126   5.690   2.204  14.703
   538G11  C0GU36127   5.859   2.251  14.572
   538G11  H01P36128   5.903   2.328  14.635
   538G11  O00L36129   5.714   1.929  14.352
   538G11  C0GM36130   5.927   2.226  14.452
   538G11  C0GL36131   6.043   2.291  14.403
   538G11  H01R36132   6.092   2.366  14.463
   538G11  C0GK36133   6.086   2.255  14.270
   538G11  C0GP36134   6.198   2.287  14.187
   538G11  C0E236135   6.177   2.227  14.054
   538G11  C0E136136   6.312   2.184  14.018
   538G11  C0DU36137   6.346   2.067  13.944
   538G11  C0DT36138   6.268   1.968  13.886
   538G11  C0E436139   6.138   1.942  13.922
   538G11  C0E536140   6.101   1.822  13.855
   538G11  C0DS36141   6.314   1.855  13.827
   538G11  C0DR36142   6.455   1.833  13.843
   538G11  C0DD36143   6.523   1.718  13.803
   538G11  C0DC36144   6.658   1.739  13.870
   538G11  C0DP36145   6.667   1.860  13.953
   538G11  C0DA36146   6.779   1.922  14.031
   538G11  C0D936147   6.926   1.899  14.019
   538G11  C0CR36148   7.014   1.970  14.105
   538G11  C0C036149   6.969   2.042  14.207
   538G11  C0BZ36150   7.048   2.114  14.299
   538G11  C0C136151   6.999   2.183  14.412
   538G11  C0C736152   7.083   2.249  14.499
   538G11  C0C636153   7.033   2.315  14.610
   538G11  C0C936154   7.112   2.393  14.684
   538G11  C0B836155   7.061   2.452  14.801
   538G11  C0B736156   7.142   2.543  14.878
   538G11  C0B636157   7.110   2.622  15.002
   538G11  C0B536158   7.046   2.567  15.118
   538G11  H00Z36159   6.965   2.495  15.113
   538G11  C0B436160   7.108   2.635  15.237
   538G11  H01036161   7.091   2.613  15.341
   538G11  C0B336162   7.217   2.713  15.196
   538G11  C0AP36163   7.351   2.775  15.219
   538G11  C0AQ36164   7.397   2.790  15.087
   538G11  C0AR36165   7.531   2.799  15.056
   538G11  C0AS36166   7.561   2.766  14.929
   538G11  C0AT36167   7.479   2.695  14.847
   538G11  C0BA36168   7.353   2.677  14.875
   538G11  C0AU36169   7.532   2.617  14.742
   538G11  C0BE36170   7.451   2.528  14.674
   538G11  C0BI36171   7.507   2.449  14.572
   538G11  C0BJ36172   7.644   2.466  14.543
   538G11  C0BK36173   7.693   2.405  14.430
   538G11  C0BW36174   7.613   2.325  14.351
   538G11  C0BV36175   7.478   2.302  14.387
   538G11  C0BU36176   7.397   2.219  14.313
   538G11  C0BX36177   7.270   2.197  14.351
   538G11  C0BT36178   7.454   2.156  14.202
   538G11  C0CD36179   7.373   2.069  14.132
   538G11  C0CB36180   7.237   2.049  14.162
   538G11  C0CE36181   7.430   1.998  14.025
   538G11  C0CK36182   7.563   2.015  13.994
   538G11  C0BS36183   7.648   2.103  14.066
   538G11  C0CJ36184   7.783   2.122  14.029
   538G11  C0BP36185   7.857   2.214  14.099
   538G11  C0CI36186   7.990   2.245  14.053
   538G11  C0CH36187   8.066   2.328  14.137
   538G11  H01236188   8.170   2.335  14.107
   538G11  C0BN36189   8.014   2.383  14.256
   538G11  C0CG36190   8.100   2.459  14.338
   538G11  C0CF36191   8.227   2.500  14.293
   538G11  H01336192   8.247   2.485  14.188
   538G11  O00G36193   8.317   2.565  14.376
   538G11  C0AA36194   8.264   2.620  14.495
   538G11  C0A936195   8.348   2.688  14.577
   538G11  H00U36196   8.452   2.702  14.552
   538G11  C0A836197   8.306   2.729  14.701
   538G11  H00V36198   8.386   2.779  14.755
   538G11  C0A736199   8.175   2.720  14.751
   538G11  C0A636200   8.086   2.644  14.665
   538G11  C0A536201   7.948   2.627  14.684
   538G11  C0A436202   7.879   2.701  14.788
   538G11  C0A336203   7.913   2.767  14.917
   538G11  C0A236204   8.042   2.779  14.973
   538G11  C0A136205   8.065   2.860  15.094
   538G11  C0A036206   7.992   2.900  15.212
   538G11  C09Z36207   8.069   2.954  15.313
   538G11  C09Y36208   8.017   2.959  15.442
   538G11  H00Y36209   8.086   2.986  15.520
   538G11  C09X36210   7.881   2.926  15.463
   538G11  C09W36211   7.832   2.942  15.593
   538G11  H00R36212   7.891   2.980  15.675
   538G11  C0AX36213   7.701   2.909  15.638
   538G11  H00S36214   7.674   2.921  15.741
   538G11  C0AW36215   7.618   2.863  15.535
   538G11  H00T36216   7.517   2.829  15.549
   538G11  C0AN36217   7.659   2.854  15.396
   538G11  C0AO36218   7.570   2.813  15.289
   538G11  C0AM36219   7.797   2.877  15.367
   538G11  C0B236220   8.206   3.012  15.295
   538G11  O00D36221   8.270   3.076  15.380
   538G11  C0B136222   8.265   2.994  15.164
   538G11  H00W36223   8.347   3.053  15.126
   538G11  C0AL36224   7.851   2.867  15.235
   538G11  C0AK36225   7.761   2.825  15.134
   538G11  C0B036226   8.198   2.912  15.068
   538G11  C0AZ36227   8.248   2.877  14.940
   538G11  H00X36228   8.346   2.907  14.906
   538G11  C0AJ36229   7.798   2.796  14.993
   538G11  C0AH36230   7.741   2.713  14.782
   538G11  C0AE36231   7.864   2.553  14.597
   538G11  C0AD36232   7.916   2.491  14.489
   538G11  C0AY36233   8.157   2.777  14.886
   538G11  C0AB36234   8.132   2.588  14.541
   538G11  C0AC36235   8.054   2.505  14.458
   538G11  C0BM36236   7.885   2.358  14.291
   538G11  C0CM36237   8.032   2.198  13.928
   538G11  C09M36238   7.977   2.072  13.892
   538G11  C09836239   8.068   1.985  13.819
   538G11  C08R36240   8.054   1.855  13.744
   538G11  C08Q36241   8.176   1.802  13.687
   538G11  C08P36242   8.219   1.711  13.579
   538G11  C08Y36243   8.355   1.734  13.534
   538G11  C09736244   8.411   1.855  13.559
   538G11  C09636245   8.462   1.906  13.442
   538G11  C09036246   8.484   1.791  13.359
   538G11  C09536247   8.530   1.792  13.225
   538G11  C09436248   8.540   1.679  13.140
   538G11  C08J36249   8.483   1.542  13.157
   538G11  C08I36250   8.451   1.491  13.028
   538G11  C08H36251   8.344   1.391  13.026
   538G11  C08G36252   8.281   1.420  13.156
   538G11  C08F36253   8.167   1.366  13.225
   538G11  C08E36254   8.092   1.261  13.161
   538G11  C05936255   8.149   1.158  13.081
   538G11  C05836256   8.070   1.047  13.038
   538G11  C05736257   8.106   0.955  12.938
   538G11  C05636258   8.242   0.965  12.891
   538G11  C05536259   8.334   1.046  12.947
   538G11  C05436260   8.436   1.071  12.847
   538G11  C05336261   8.404   0.988  12.733
   538G11  C05236262   8.471   0.987  12.604
   538G11  C05136263   8.573   1.080  12.564
   538G11  C05U36264   8.611   1.195  12.645
   538G11  C05T36265   8.560   1.256  12.764
   538G11  C06K36266   8.651   1.370  12.784
   538G11  H00J36267   8.634   1.432  12.871
   538G11  C06L36268   8.740   1.388  12.676
   538G11  H00I36269   8.810   1.470  12.667
   538G11  C05V36270   8.720   1.275  12.593
   538G11  C06J36271   8.783   1.258  12.472
   538G11  H00K36272   8.856   1.332  12.442
   538G11  C05X36273   8.755   1.146  12.396
   538G11  C06I36274   8.818   1.120  12.268
   538G11  H00L36275   8.902   1.180  12.237
   538G11  C04Z36276   8.772   1.022  12.177
   538G11  C06H36277   8.849   0.994  12.057
   538G11  H00H36278   8.934   1.055  12.029
   538G11  C04Y36279   8.792   0.895  11.964
   538G11  C06G36280   8.848   0.882  11.835
   538G11  O00936281   8.959   0.922  11.808
   538G11  O00836282   8.781   0.804  11.739
   538G11  C04P36283   8.663   0.740  11.769
   538G11  C04J36284   8.592   0.656  11.669
   538G11  C04Q36285   8.623   0.637  11.535
   538G11  H00E36286   8.716   0.667  11.489
   538G11  C04M36287   8.533   0.568  11.446
   538G11  C04R36288   8.565   0.534  11.313
   538G11  H00F36289   8.664   0.546  11.271
   538G11  C04S36290   8.474   0.468  11.240
   538G11  H00G36291   8.505   0.432  11.142
   538G11  O00736292   8.345   0.434  11.276
   538G11  C03V36293   8.316   0.463  11.409
   538G11  C03U36294   8.191   0.432  11.454
   538G11  O00636295   8.109   0.364  11.365
   538G11  C03F36296   7.980   0.344  11.395
   538G11  C03E36297   7.932   0.367  11.529
   538G11  C03D36298   8.019   0.421  11.627
   538G11  C03C36299   7.975   0.438  11.759
   538G11  C03B36300   7.841   0.400  11.780
   538G11  C03A36301   7.786   0.420  11.906
   538G11  C03936302   7.863   0.487  12.011
   538G11  C03836303   7.763   0.494  12.121
   538G11  C03736304   7.644   0.431  12.072
   538G11  C03636305   7.543   0.411  12.161
   538G11  C02R36306   7.419   0.360  12.129
   538G11  C03536307   7.349   0.363  12.251
   538G11  C03R36308   7.426   0.430  12.346
   538G11  C03S36309   7.374   0.504  12.449
   538G11  C04936310   7.460   0.584  12.519
   538G11  C04836311   7.588   0.601  12.461
   538G11  C03P36312   7.638   0.545  12.334
   538G11  C04736313   7.675   0.673  12.550
   538G11  C04636314   7.806   0.701  12.526
   538G11  C04536315   7.891   0.677  12.416
   538G11  C03T36316   7.872   0.617  12.295
   538G11  C04436317   7.993   0.630  12.218
   538G11  C04336318   8.078   0.704  12.296
   538G11  C04236319   8.212   0.690  12.261
   538G11  C04136320   8.198   0.624  12.131
   538G11  C04036321   8.310   0.621  12.047
   538G11  C03Z36322   8.294   0.581  11.907
   538G11  C04H36323   8.419   0.627  11.844
   538G11  C04G36324   8.497   0.686  11.938
   538G11  C03N36325   8.195   0.525  11.816
   538G11  C03Y36326   8.239   0.511  11.676
   538G11  C03X36327   8.369   0.550  11.629
   538G11  C04F36328   8.431   0.695  12.060
   538G11  C04E36329   8.494   0.776  12.157
   538G11  C04O36330   8.612   0.846  12.123
   538G11  C04D36331   8.442   0.796  12.289
   538G11  C04V36332   8.506   0.883  12.381
   538G11  C04W36333   8.611   0.963  12.342
   538G11  C04C36334   8.323   0.751  12.343
   538G11  C04L36335   8.320   0.813  12.476
   538G11  C04U36336   8.209   0.814  12.563
   538G11  C05Q36337   8.197   0.853  12.697
   538G11  C05P36338   8.068   0.830  12.746
   538G11  C04T36339   7.996   0.775  12.647
   538G11  C04B36340   8.077   0.769  12.539
   538G11  C03M36341   8.060   0.580  12.102
   538G11  C04A36342   8.022   0.714  12.422
   538G11  C05H36343   7.856   0.756  12.636
   538G11  C05G36344   7.753   0.769  12.731
   538G11  C05F36345   7.761   0.813  12.863
   538G11  C05E36346   7.652   0.863  12.938
   538G11  C05L36347   7.510   0.864  12.938
   538G11  C05K36348   7.438   0.792  12.835
   538G11  C05J36349   7.489   0.719  12.716
   538G11  C06636350   7.295   0.793  12.851
   538G11  C06536351   7.233   0.867  12.955
   538G11  C06436352   7.309   0.939  13.043
   538G11  C06N36353   7.095   0.866  12.964
   538G11  C06936354   7.012   0.798  12.873
   538G11  C06P36355   6.876   0.815  12.872
   538G11  C06R36356   6.796   0.774  12.764
   538G11  C06B36357   6.853   0.700  12.664
   538G11  C06S36358   6.776   0.652  12.558
   538G11  C02G36359   6.834   0.568  12.464
   538G11  C02F36360   6.758   0.525  12.354
   538G11  C02736361   6.626   0.571  12.340
   538G11  C02636362   6.556   0.535  12.228
   538G11  C00E36363   6.428   0.580  12.209
   538G11  C00D36364   6.359   0.559  12.093
   538G11  C00C36365   6.239   0.616  12.073
   538G11  C00B36366   6.185   0.711  12.154
   538G11  C01536367   6.245   0.726  12.280
   538G11  C07F36368   6.190   0.813  12.377
   538G11  C07E36369   6.259   0.837  12.493
   538G11  C06W36370   6.382   0.777  12.518
   538G11  C06V36371   6.439   0.692  12.425
   538G11  C06X36372   6.456   0.817  12.626
   538G11  C07B36373   6.400   0.901  12.720
   538G11  C07C36374   6.280   0.959  12.697
   538G11  C0FU36375   6.219   1.043  12.790
   538G11  C0F736376   6.097   1.103  12.771
   538G11  C0F636377   6.043   1.192  12.862
   538G11  C0F836378   5.927   1.261  12.832
   538G11  C0F936379   5.874   1.352  12.926
   538G11  C0FA36380   5.748   1.404  12.903
   538G11  C0FZ36381   5.685   1.372  12.783
   538G11  C0G036382   5.566   1.438  12.754
   538G11  C0GD36383   5.505   1.523  12.842
   538G11  C0FC36384   5.563   1.550  12.964
   538G11  C0GH36385   5.503   1.633  13.062
   538G11  C0EY36386   5.567   1.651  13.186
   538G11  C0EX36387   5.509   1.734  13.282
   538G11  C0EW36388   5.575   1.750  13.405
   538G11  C0FR36389   5.531   1.854  13.495
   538G11  H01D36390   5.584   1.888  13.583
   538G11  C0FS36391   5.422   1.934  13.467
   538G11  H01C36392   5.387   2.017  13.526
   538G11  C0GJ36393   5.343   1.899  13.355
   538G11  H01N36394   5.262   1.960  13.318
   538G11  C0EV36395   5.692   1.679  13.435
   538G11  C0FT36396   5.746   1.694  13.563
   538G11  H01E36397   5.698   1.736  13.650
   538G11  C0EU36398   5.753   1.608  13.336
   538G11  C0ET36399   5.877   1.557  13.348
   538G11  C0EI36400   5.948   1.483  13.262
   538G11  C0F136401   5.880   1.459  13.139
   538G11  C0F036402   5.755   1.523  13.111
   538G11  C0EH36403   6.083   1.443  13.285
   538G11  C0EG36404   6.157   1.482  13.405
   538G11  C0EJ36405   6.137   1.357  13.191
   538G11  C0F336406   6.069   1.322  13.068
   538G11  C0EK36407   6.269   1.311  13.212
   538G11  C0EL36408   6.347   1.349  13.327
   538G11  C0EM36409   6.477   1.287  13.323
   538G11  C0EN36410   6.513   1.188  13.232
   538G11  C07I36411   6.650   1.155  13.237
   538G11  C07436412   6.707   1.064  13.146
   538G11  C07336413   6.843   1.046  13.153
   538G11  C07236414   6.898   0.957  13.066
   538G11  C07536415   6.624   1.014  13.049
   538G11  C07636416   6.491   1.061  13.037
   538G11  C07836417   6.419   1.023  12.927
   538G11  C07G36418   6.680   0.928  12.956
   538G11  C07036419   6.605   0.889  12.850
   538G11  C07Z36420   6.712   1.223  13.338
   538G11  C07736421   6.437   1.155  13.125
   538G11  C0EO36422   6.312   1.215  13.116
   538G11  C0F436423   6.243   1.173  13.000
   538G11  C0EQ36424   5.942   1.585  13.465
   538G11  C0FQ36425   5.393   1.804  13.258
   538G11  C0GI36426   5.330   1.784  13.131
   538G11  H01L36427   5.240   1.839  13.107
   538G11  C0EZ36428   5.692   1.598  13.212
   538G11  C0GG36429   5.385   1.701  13.035
   538G11  C0GF36430   5.337   1.683  12.903
   538G11  H01M36431   5.247   1.737  12.876
   538G11  C0GE36432   5.391   1.595  12.811
   538G11  H01K36433   5.341   1.581  12.716
   538G11  O00J36434   5.505   1.427  12.633
   538G11  C0GA36435   5.562   1.340  12.544
   538G11  C0G936436   5.508   1.344  12.417
   538G11  H01H36437   5.425   1.409  12.394
   538G11  C0G836438   5.571   1.274  12.310
   538G11  C0G736439   5.529   1.288  12.175
   538G11  H01I36440   5.448   1.355  12.149
   538G11  O00I36441   5.589   1.216  12.073
   538G11  C0G636442   5.705   1.148  12.104
   538G11  H01J36443   5.762   1.114  12.019
   538G11  C02D36444   5.749   1.124  12.242
   538G11  C02C36445   5.858   1.041  12.272
   538G11  C01736446   5.905   0.946  12.181
   538G11  C01636447   6.019   0.868  12.215
   538G11  O00136448   5.846   0.923  12.060
   538G11  C01836449   5.911   0.866  11.955
   538G11  C00936450   6.018   0.777  11.989
   538G11  C00836451   6.081   0.680  11.898
   538G11  C00736452   6.066   0.645  11.760
   538G11  C00636453   6.000   0.732  11.667
   538G11  C00536454   5.996   0.706  11.529
   538G11  C00436455   6.070   0.611  11.445
   538G11  C00336456   6.196   0.538  11.474
   538G11  C00236457   6.268   0.482  11.365
   538G11  C00P36458   6.387   0.409  11.392
   538G11  C00O36459   6.470   0.375  11.286
   538G11  C00N36460   6.593   0.314  11.303
   538G11  C01036461   6.678   0.287  11.198
   538G11  C01136462   6.806   0.232  11.210
   538G11  C01Q36463   6.895   0.210  11.102
   538G11  C01U36464   6.861   0.261  10.976
   538G11  C01236465   6.744   0.332  10.963
   538G11  H00036466   6.723   0.389  10.874
   538G11  C01V36467   6.953   0.229  10.876
   538G11  H00736468   6.937   0.263  10.775
   538G11  O00536469   7.059   0.143  10.890
   538G11  C01W36470   7.093   0.108  11.014
   538G11  C03136471   7.217   0.037  11.039
   538G11  C03236472   7.247  -0.018  11.172
   538G11  H00A36473   7.330  -0.081  11.198
   538G11  C03336474   7.166   0.024  11.276
   538G11  H00B36475   7.196  -0.007  11.375
   538G11  C01O36476   7.054   0.112  11.253
   538G11  C01N36477   6.982   0.166  11.359
   538G11  C01M36478   7.034   0.154  11.491
   538G11  C01L36479   7.161   0.181  11.560
   538G11  C01K36480   7.126   0.180  11.695
   538G11  C01Y36481   7.207   0.237  11.795
   538G11  C02I36482   7.340   0.269  11.766
   538G11  C02N36483   7.420   0.304  11.878
   538G11  C02M36484   7.558   0.333  11.845
   538G11  C02L36485   7.607   0.318  11.715
   538G11  C02K36486   7.520   0.287  11.610
   538G11  C02U36487   7.571   0.294  11.483
   538G11  C02V36488   7.706   0.302  11.454
   538G11  C03H36489   7.758   0.278  11.324
   538G11  H00C36490   7.704   0.233  11.242
   538G11  C02W36491   7.485   0.294  11.377
   538G11  C02X36492   7.351   0.277  11.401
   538G11  C02Y36493   7.293   0.307  11.277
   538G11  H00836494   7.189   0.310  11.251
   538G11  C02Z36495   7.401   0.344  11.179
   538G11  O00436496   7.395   0.386  11.062
   538G11  O00336497   7.513   0.324  11.249
   538G11  C02J36498   7.382   0.262  11.629
   538G11  C01Z36499   7.144   0.255  11.916
   538G11  C02036500   7.006   0.263  11.929
   538G11  C01I36501   6.928   0.220  11.823
   538G11  C01H36502   6.796   0.265  11.807
   538G11  C00K36503   6.739   0.263  11.684
   538G11  C01S36504   6.806   0.216  11.573
   538G11  C01436505   6.761   0.227  11.444
   538G11  C00J36506   6.617   0.318  11.668
   538G11  C00I36507   6.545   0.369  11.775
   538G11  C00H36508   6.608   0.377  11.897
   538G11  C00G36509   6.545   0.440  12.007
   538G11  C00S36510   6.417   0.422  11.754
   538G11  C00T36511   6.357   0.470  11.867
   538G11  C00U36512   6.240   0.530  11.847
   538G11  C00R36513   6.363   0.442  11.626
   538G11  C00L36514   6.560   0.334  11.540
   538G11  C02836515   6.739   0.338  11.913
   538G11  C02336516   6.809   0.359  12.029
   538G11  C02436517   6.751   0.427  12.138
   538G11  C02136518   6.944   0.319  12.038
   538G11  C02236519   7.015   0.359  12.147
   538G11  C02H36520   6.955   0.426  12.256
   538G11  C03036521   7.025   0.463  12.368
   538G11  C03436522   7.156   0.438  12.369
   538G11  C02P36523   7.152   0.338  12.142
   538G11  C02B36524   7.218   0.296  12.022
   538G11  C01J36525   6.992   0.167  11.712
   538G11  C01X36526   7.291   0.238  11.521
   538G11  C01T36527   6.934   0.168  11.592
   538G11  H00936528   7.290   0.011  10.963
   538G11  C01P36529   7.012   0.145  11.126
   538G11  C01R36530   6.852   0.206  11.339
   538G11  C00Z36531   6.644   0.340  11.070
   538G11  O00036532   6.516   0.386  11.048
   538G11  C00M36533   6.636   0.290  11.432
   538G11  C00Y36534   6.428   0.398  11.150
   538G11  C01336535   6.310   0.457  11.125
   538G11  H00136536   6.284   0.478  11.022
   538G11  C00Q36537   6.438   0.395  11.519
   538G11  C00136538   6.223   0.488  11.236
   538G11  C00036539   6.095   0.540  11.214
   538G11  H00636540   6.046   0.546  11.118
   538G11  C00W36541   6.245   0.518  11.604
   538G11  C01G36542   6.017   0.596  11.314
   538G11  H00536543   5.927   0.644  11.277
   538G11  C01C36544   5.896   0.797  11.471
   538G11  H00236545   5.872   0.804  11.366
   538G11  C01B36546   5.852   0.884  11.580
   538G11  C01D36547   5.763   0.995  11.581
   538G11  H00336548   5.705   1.025  11.495
   538G11  C01E36549   5.729   1.044  11.701
   538G11  H00436550   5.658   1.125  11.702
   538G11  O00236551   5.776   0.998  11.824
   538G11  C01A36552   5.904   0.832  11.704
   538G11  C00V36553   6.178   0.558  11.725
   538G11  C01936554   5.868   0.896  11.828
   538G11  C02E36555   5.910   1.045  12.402
   538G11  C0FX36556   5.856   1.126  12.499
   538G11  C0FW36557   5.917   1.144  12.619
   538G11  C0GB36558   5.735   1.192  12.471
   538G11  C0G336559   6.023   0.973  12.433
   538G11  C07H36560   6.085   0.990  12.554
   538G11  C0GC36561   5.682   1.196  12.339
   538G11  C0G236562   5.682   1.279  12.565
   538G11  C0G136563   5.741   1.297  12.685
   538G11  C0FB36564   5.687   1.494  12.995
   538G11  C0F236565   5.946   1.380  13.041
   538G11  C0FY36566   5.862   1.230  12.714
   538G11  C0F536567   6.115   1.223  12.982
   538G11  C0FV36568   6.030   1.076  12.648
   538G11  C07936569   6.292   1.077  12.909
   538G11  C07A36570   6.474   0.934  12.832
   538G11  C06Y36571   6.589   0.770  12.645
   538G11  C07D36572   6.205   0.928  12.584
   538G11  C01F36573   6.079   0.884  12.341
   538G11  C00A36574   6.072   0.783  12.120
   538G11  C00X36575   6.179   0.597  11.951
   538G11  C00F36576   6.414   0.482  11.995
   538G11  C02936577   6.366   0.664  12.305
   538G11  C02536578   6.618   0.466  12.124
   538G11  C06U36579   6.566   0.648  12.439
   538G11  C02A36580   6.822   0.460  12.251
   538G11  C05Y36581   6.969   0.538  12.469
   538G11  C05Z36582   7.050   0.597  12.567
   538G11  C06036583   7.187   0.581  12.563
   538G11  C06236584   7.269   0.652  12.650
   538G11  C06T36585   6.645   0.692  12.546
   538G11  C06A36586   6.990   0.671  12.666
   538G11  C06Z36587   6.662   0.809  12.755
   538G11  C06Q36588   6.815   0.895  12.967
   538G11  C06836589   7.074   0.724  12.769
   538G11  C06736590   7.215   0.720  12.759
   538G11  C06336591   7.447   0.941  13.035
   538G11  C06C36592   7.525   1.030  13.118
   538G11  C06D36593   7.655   1.038  13.115
   538G11  C06E36594   7.742   1.126  13.182
   538G11  C07Q36595   7.683   1.214  13.267
   538G11  C07P36596   7.545   1.202  13.287
   538G11  C07T36597   7.483   1.284  13.382
   538G11  C07U36598   7.343   1.269  13.405
   538G11  C07V36599   7.287   1.354  13.497
   538G11  C08436600   7.366   1.445  13.565
   538G11  C08C36601   7.500   1.461  13.535
   538G11  C08B36602   7.579   1.562  13.597
   538G11  C08A36603   7.710   1.573  13.558
   538G11  C08936604   7.782   1.489  13.478
   538G11  C08836605   7.920   1.512  13.454
   538G11  C08736606   7.983   1.425  13.365
   538G11  C08636607   7.906   1.322  13.301
   538G11  C08X36608   7.996   1.610  13.522
   538G11  C08T36609   7.919   1.704  13.613
   538G11  C08D36610   7.705   1.393  13.419
   538G11  C08U36611   7.781   1.676  13.622
   538G11  C08V36612   7.725   1.756  13.722
   538G11  C0CY36613   7.594   1.741  13.758
   538G11  C0CX36614   7.543   1.832  13.839
   538G11  C0CW36615   7.408   1.816  13.872
   538G11  C0CV36616   7.330   1.720  13.811
   538G11  C0D436617   7.387   1.636  13.716
   538G11  C0CU36618   7.195   1.712  13.836
   538G11  C0CT36619   7.131   1.801  13.921
   538G11  C0CS36620   7.211   1.891  13.984
   538G11  C0D636621   7.121   1.621  13.767
   538G11  C0EC36622   7.174   1.532  13.678
   538G11  C07X36623   7.095   1.443  13.602
   538G11  C0DL36624   6.988   1.619  13.784
   538G11  C0DK36625   6.904   1.527  13.715
   538G11  C0DN36626   6.779   1.548  13.759
   538G11  C0D836627   6.915   1.702  13.864
   538G11  C08W36628   7.814   1.845  13.775
   538G11  C0CQ36629   7.757   1.936  13.872
   538G11  C09336630   7.521   1.647  13.689
   538G11  C09236631   7.310   1.539  13.654
   538G11  C08536632   7.566   1.379  13.443
   538G11  C07S36633   7.765   1.309  13.328
   538G11  C06F36634   7.881   1.133  13.160
   538G11  C07O36635   7.470   1.106  13.219
   538G11  C07N36636   7.330   1.098  13.233
   538G11  C05D36637   7.716   0.928  13.049
   538G11  C05C36638   7.853   0.938  13.025
   538G11  C05N36639   7.883   0.864  12.913
   538G11  C05M36640   7.633   0.729  12.677
   538G11  C05I36641   7.407   0.655  12.629
   538G11  C06136642   7.238   0.500  12.461
   538G11  C02Q36643   7.217   0.375  12.255
   538G11  C02O36644   7.356   0.314  12.006
   538G11  C03Q36645   7.541   0.463  12.285
   538G11  C03O36646   7.758   0.555  12.255
   538G11  C03L36647   8.004   0.516  11.989
   538G11  C02S36648   7.658   0.387  11.943
   538G11  C02T36649   7.745   0.357  11.684
   538G11  C03K36650   8.062   0.487  11.859
   538G11  C03I36651   7.795   0.338  11.554
   538G11  C03G36652   7.894   0.295  11.296
   538G11  H00D36653   7.932   0.266  11.199
   538G11  C03J36654   8.152   0.451  11.588
   538G11  C03W36655   8.407   0.526  11.498
   538G11  C04I36656   8.468   0.606  11.711
   538G11  C04K36657   8.610   0.745  11.894
   538G11  C04N36658   8.672   0.824  11.993
   538G11  C04X36659   8.661   0.944  12.216
   538G11  C05036660   8.646   1.063  12.436
   538G11  C05W36661   8.432   0.898  12.500
   538G11  C05S36662   8.458   1.209  12.853
   538G11  C05R36663   8.284   0.927  12.770
   538G11  C05O36664   8.013   0.880  12.864
   538G11  C05B36665   7.941   1.041  13.074
   538G11  C05A36666   8.277   1.159  13.017
   538G11  C07R36667   7.962   1.238  13.210
   538G11  C08N36668   8.117   1.450  13.327
   538G11  C08M36669   8.195   1.557  13.388
   538G11  C08L36670   8.324   1.590  13.342
   538G11  C09136671   8.363   1.264  12.964
   538G11  C09K36672   8.451   1.609  12.940
   538G11  H00M36673   8.388   1.617  12.853
   538G11  C08K36674   8.360   1.518  13.226
   538G11  C09J36675   8.522   1.718  13.006
   538G11  C09I36676   8.491   1.854  13.002
   538G11  C09L36677   8.447   1.939  12.895
   538G11  H00N36678   8.415   1.896  12.802
   538G11  C09Q36679   8.436   2.068  12.932
   538G11  H00O36680   8.407   2.139  12.855
   538G11  O00B36681   8.458   2.122  13.055
   538G11  C09G36682   8.487   2.038  13.159
   538G11  C09F36683   8.492   2.108  13.283
   538G11  O00A36684   8.481   2.245  13.278
   538G11  C09P36685   8.506   2.319  13.389
   538G11  H00P36686   8.579   2.398  13.393
   538G11  C09O36687   8.424   2.285  13.499
   538G11  C09D36688   8.425   2.138  13.520
   538G11  C09C36689   8.358   2.068  13.627
   538G11  C09N36690   8.274   2.113  13.739
   538G11  C09T36691   8.220   2.249  13.751
   538G11  C09S36692   8.267   2.363  13.678
   538G11  C0CP36693   8.198   2.469  13.741
   538G11  C0CN36694   8.104   2.426  13.831
   538G11  C0CO36695   8.015   2.522  13.878
   538G11  H01436696   7.936   2.494  13.946
   538G11  C0CZ36697   8.031   2.652  13.838
   538G11  H01536698   7.968   2.735  13.866
   538G11  C0D036699   8.132   2.699  13.748
   538G11  C0G536700   8.166   2.837  13.716
   538G11  H01F36701   8.116   2.916  13.770
   538G11  C0G436702   8.251   2.865  13.619
   538G11  H01G36703   8.270   2.966  13.585
   538G11  O00H36704   8.317   2.767  13.547
   538G11  C0D236705   8.303   2.633  13.588
   538G11  C09V36706   8.374   2.526  13.530
   538G11  H00Q36707   8.450   2.548  13.456
   538G11  C0D136708   8.212   2.598  13.693
   538G11  C09R36709   8.364   2.385  13.578
   538G11  C09H36710   8.511   1.899  13.134
   538G11  C09E36711   8.466   2.047  13.412
   538G11  C09B36712   8.361   1.934  13.653
   538G11  C08Z36713   8.387   1.701  13.406
   538G11  C08O36714   8.135   1.628  13.499
   538G11  C09A36715   8.269   1.882  13.748
   538G11  C08S36716   7.932   1.813  13.706
   538G11  C09936717   8.214   1.996  13.802
   538G11  C09U36718   8.118   2.284  13.845
   538G11  C0BO36719   7.805   2.274  14.215
   538G11  C0CL36720   7.838   2.038  13.934
   538G11  C0D336721   7.620   1.930  13.900
   538G11  C0D536722   7.352   1.906  13.962
   538G11  C0BR36723   7.594   2.174  14.172
   538G11  C0BQ36724   7.674   2.256  14.250
   538G11  C0BL36725   7.831   2.414  14.406
   538G11  C0AF36726   7.729   2.547  14.618
   538G11  C0BH36727   7.424   2.367  14.497
   538G11  C0BG36728   7.294   2.349  14.531
   538G11  C0BD36729   7.320   2.509  14.713
   538G11  C0AG36730   7.665   2.624  14.710
   538G11  C0AI36731   7.694   2.757  14.908
   538G11  C0AV36732   7.623   2.812  15.157
   538G11  C0BB36733   7.309   2.745  14.988
   538G11  O00C36734   7.437   2.795  15.322
   538G11  C0BC36735   7.190   2.727  15.052
   538G11  C0B936736   7.267   2.581  14.821
   538G11  O00E36737   6.927   2.431  14.840
   538G11  C0CA36738   6.838   2.366  14.763
   538G11  O00F36739   6.720   2.369  14.803
   538G11  C0BF36740   7.243   2.417  14.642
   538G11  C0C536741   6.897   2.311  14.641
   538G11  C0C436742   6.806   2.254  14.548
   538G11  H01136743   6.698   2.254  14.558
   538G11  C0C836744   7.215   2.263  14.461
   538G11  C0C236745   6.862   2.189  14.435
   538G11  C0C336746   6.783   2.129  14.332
   538G11  C0DY36747   6.643   2.134  14.316
   538G11  H01636748   6.571   2.187  14.377
   538G11  C0DX36749   6.614   2.066  14.192
   538G11  C0DW36750   6.502   2.103  14.111
   538G11  C0BY36751   7.187   2.118  14.271
   538G11  C0DB36752   6.834   2.055  14.228
   538G11  C0CC36753   7.155   1.968  14.086
   538G11  C0D736754   6.990   1.800  13.938
   538G11  C0DZ36755   6.737   2.007  14.137
   538G11  C0DM36756   6.774   1.659  13.855
   538G11  C0DQ36757   6.535   1.916  13.933
   538G11  C0DV36758   6.469   2.026  13.992
   538G11  C0E036759   6.398   2.195  14.128
   538G11  C0FO36760   6.077   2.129  14.072
   538G11  C0E336761   6.327   2.247  14.241
   538G11  H01736762   6.348   2.242  14.347
   538G11  C0GV36763   6.019   2.158  14.196
   538G11  C0ES36764   6.054   2.005  14.010
   538G11  C0GQ36765   5.774   1.900  14.229
   538G11  C0FJ36766   5.745   1.627  13.975
   538G11  C0ED36767   5.977   1.758  13.882
   538G11  C0ER36768   5.875   1.644  13.569
   538G11  C0EP36769   6.071   1.555  13.501
   538G11  C0E636770   6.211   1.764  13.782
   538G11  C0DE36771   6.467   1.594  13.733
   538G11  C0EA36772   6.292   1.434  13.427
   538G11  C0DF36773   6.541   1.474  13.709
   538G11  C08036774   6.602   1.294  13.397
   538G11  C0DO36775   6.682   1.475  13.694
   538G11  C0DJ36776   6.958   1.439  13.612
   538G11  C07K36777   6.855   1.203  13.351
   538G11  C07W36778   7.149   1.351  13.511
   538G11  C08336779   7.268   1.180  13.331
   538G11  C07J36780   6.914   1.119  13.245
   538G11  C06O36781   7.037   0.939  13.072
   538G11  C06M36782   7.255   1.012  13.146
   548G11  C07136783   8.954   6.064  15.281
   548G11  C07L36784   9.049   6.159  15.231
   548G11  C07M36785   9.007   6.277  15.167
   548G11  C07Y36786   9.101   6.360  15.099
   548G11  C08136787   9.243   6.335  15.096
   548G11  C08236788   9.332   6.426  15.033
   548G11  C0DI36789   9.477   6.427  15.015
   548G11  C0DH36790   9.579   6.335  15.057
   548G11  C0DG36791   9.704   6.387  15.021
   548G11  C0E936792   9.831   6.322  14.983
   548G11  C0E836793   9.893   6.428  14.899
   548G11  C0E736794  10.030   6.454  14.860
   548G11  C0EB36795  10.138   6.365  14.919
   548G11  C0EF36796  10.276   6.393  14.942
   548G11  C0EE36797  10.339   6.521  14.945
   548G11  C0FD36798  10.431   6.545  15.052
   548G11  C0FE36799  10.427   6.475  15.177
   548G11  H01B36800  10.365   6.386  15.178
   548G11  C0FF36801  10.517   6.506  15.276
   548G11  H01A36802  10.505   6.444  15.363
   548G11  C0FG36803  10.607   6.613  15.257
   548G11  H01836804  10.676   6.627  15.340
   548G11  C0FH36805  10.605   6.690  15.140
   548G11  C0FI36806  10.695   6.802  15.117
   548G11  H01936807  10.768   6.834  15.190
   548G11  O00K36808  10.691   6.880  15.003
   548G11  C0FL36809  10.587   6.850  14.915
   548G11  C0FK36810  10.499   6.739  14.926
   548G11  C0FM36811  10.410   6.710  14.817
   548G11  C0FN36812  10.411   6.791  14.699
   548G11  C0FP36813  10.486   6.912  14.703
   548G11  C0GO36814  10.476   7.009  14.606
   548G11  C0GN36815  10.527   7.137  14.607
   548G11  C0GR36816  10.623   7.157  14.712
   548G11  C0GS36817  10.675   7.285  14.728
   548G11  H01Q36818  10.748   7.304  14.805
   548G11  C0GT36819  10.648   7.390  14.642
   548G11  H01O36820  10.702   7.480  14.668
   548G11  C0GU36821  10.563   7.364  14.536
   548G11  H01P36822  10.537   7.444  14.468
   548G11  O00L36823  10.650   7.056  14.803
   548G11  C0GM36824  10.501   7.239  14.516
   548G11  C0GL36825  10.404   7.211  14.415
   548G11  H01R36826  10.357   7.294  14.364
   548G11  C0GK36827  10.362   7.075  14.400
   548G11  C0GP36828  10.264   7.002  14.324
   548G11  C0E236829  10.261   6.860  14.361
   548G11  C0E136830  10.126   6.820  14.357
   548G11  C0DU36831  10.050   6.758  14.460
   548G11  C0DT36832  10.093   6.679  14.564
   548G11  C0E436833  10.217   6.686  14.626
   548G11  C0E536834  10.210   6.605  14.743
   548G11  C0DS36835  10.006   6.617  14.655
   548G11  C0DR36836   9.869   6.656  14.644
   548G11  C0DD36837   9.770   6.621  14.740
   548G11  C0DC36838   9.656   6.703  14.699
   548G11  C0DP36839   9.686   6.786  14.580
   548G11  C0DA36840   9.599   6.882  14.514
   548G11  C0D936841   9.444   6.910  14.518
   548G11  C0CR36842   9.382   7.016  14.435
   548G11  C0C036843   9.461   7.106  14.366
   548G11  C0BZ36844   9.416   7.208  14.282
   548G11  C0C136845   9.500   7.294  14.208
   548G11  C0C736846   9.442   7.398  14.139
   548G11  C0C636847   9.527   7.493  14.081
   548G11  C0C936848   9.476   7.600  14.013
   548G11  C0B836849   9.562   7.702  13.973
   548G11  C0B736850   9.517   7.814  13.902
   548G11  C0B636851   9.575   7.946  13.876
   548G11  C0B536852   9.671   8.012  13.962
   548G11  H00Z36853   9.725   7.978  14.049
   548G11  C0B436854   9.647   8.155  13.948
   548G11  H01036855   9.678   8.243  14.003
   548G11  C0B336856   9.547   8.173  13.846
   548G11  C0AP36857   9.432   8.254  13.811
   548G11  C0AQ36858   9.338   8.161  13.751
   548G11  C0AR36859   9.197   8.181  13.757
   548G11  C0AS36860   9.133   8.062  13.758
   548G11  C0AT36861   9.184   7.938  13.788
   548G11  C0BA36862   9.319   7.916  13.793
   548G11  C0AU36863   9.103   7.835  13.823
   548G11  C0BE36864   9.157   7.720  13.888
   548G11  C0BI36865   9.072   7.631  13.948
   548G11  C0BJ36866   8.930   7.650  13.948
   548G11  C0BK36867   8.845   7.565  14.015
   548G11  C0BW36868   8.896   7.458  14.092
   548G11  C0BV36869   9.033   7.437  14.096
   548G11  C0BU36870   9.084   7.337  14.183
   548G11  C0BX36871   9.223   7.327  14.200
   548G11  C0BT36872   9.001   7.259  14.258
   548G11  C0CD36873   9.056   7.161  14.343
   548G11  C0CB36874   9.194   7.146  14.348
   548G11  C0CE36875   8.968   7.088  14.426
   548G11  C0CK36876   8.829   7.101  14.412
   548G11  C0BS36877   8.774   7.196  14.326
   548G11  C0CJ36878   8.634   7.211  14.309
   548G11  C0BP36879   8.583   7.308  14.225
   548G11  C0CI36880   8.447   7.322  14.200
   548G11  C0CH36881   8.403   7.409  14.100
   548G11  H01236882   8.298   7.403  14.075
   548G11  C0BN36883   8.487   7.509  14.050
   548G11  C0CG36884   8.434   7.623  13.987
   548G11  C0CF36885   8.297   7.643  13.973
   548G11  H01336886   8.225   7.569  14.005
   548G11  O00G36887   8.246   7.746  13.901
   548G11  C0AA36888   8.327   7.854  13.874
   548G11  C0A936889   8.263   7.983  13.852
   548G11  H00U36890   8.156   7.994  13.860
   548G11  C0A836891   8.350   8.092  13.858
   548G11  H00V36892   8.288   8.181  13.853
   548G11  C0A736893   8.492   8.089  13.871
   548G11  C0A636894   8.556   7.957  13.871
   548G11  C0A536895   8.691   7.924  13.857
   548G11  C0A436896   8.780   8.027  13.811
   548G11  C0A336897   8.784   8.172  13.802
   548G11  C0A236898   8.697   8.249  13.874
   548G11  C0A136899   8.716   8.385  13.918
   548G11  C0A036900   8.828   8.478  13.929
   548G11  C09Z36901   8.806   8.595  14.004
   548G11  C09Y36902   8.907   8.691  14.019
   548G11  H00Y36903   8.890   8.779  14.080
   548G11  C09X36904   9.032   8.661  13.964
   548G11  C09W36905   9.125   8.766  13.991
   548G11  H00R36906   9.099   8.857  14.042
   548G11  C0AX36907   9.256   8.750  13.940
   548G11  H00S36908   9.326   8.831  13.953
   548G11  C0AW36909   9.292   8.627  13.887
   548G11  H00T36910   9.390   8.600  13.848
   548G11  C0AN36911   9.202   8.521  13.883
   548G11  C0AO36912   9.242   8.391  13.847
   548G11  C0AM36913   9.064   8.542  13.911
   548G11  C0B236914   8.673   8.633  14.053
   548G11  O00D36915   8.642   8.731  14.124
   548G11  C0B136916   8.564   8.552  14.021
   548G11  H00W36917   8.463   8.584  14.042
   548G11  C0AL36918   8.960   8.444  13.890
   548G11  C0AK36919   9.007   8.320  13.833
   548G11  C0B036920   8.589   8.428  13.959
   548G11  C0AZ36921   8.486   8.324  13.940
   548G11  H00X36922   8.386   8.337  13.979
   548G11  C0AJ36923   8.927   8.208  13.791
   548G11  C0AH36924   8.913   7.979  13.788
   548G11  C0AE36925   8.743   7.796  13.891
   548G11  C0AD36926   8.657   7.702  13.946
   548G11  C0AY36927   8.556   8.210  13.888
   548G11  C0AB36928   8.469   7.838  13.881
   548G11  C0AC36929   8.520   7.718  13.933
   548G11  C0BM36930   8.623   7.499  14.066
   548G11  C0CM36931   8.361   7.250  14.282
   548G11  C09M36932   8.403   7.129  14.352
   548G11  C09836933   8.303   7.029  14.369
   548G11  C08R36934   8.301   6.919  14.458
   548G11  C08Q36935   8.190   6.844  14.457
   548G11  C08P36936   8.109   6.755  14.546
   548G11  C08Y36937   7.972   6.743  14.510
   548G11  C09736938   7.914   6.829  14.416
   548G11  C09636939   7.796   6.874  14.465
   548G11  C09036940   7.752   6.769  14.553
   548G11  C09536941   7.638   6.768  14.628
   548G11  C09436942   7.598   6.658  14.708
   548G11  C08J36943   7.682   6.552  14.764
   548G11  C08I36944   7.626   6.519  14.888
   548G11  C08H36945   7.730   6.452  14.966
   548G11  C08G36946   7.857   6.492  14.914
   548G11  C08F36947   7.999   6.485  14.948
   548G11  C08E36948   8.043   6.412  15.063
   548G11  C05936949   7.955   6.334  15.154
   548G11  C05836950   8.008   6.247  15.247
   548G11  C05736951   7.941   6.148  15.321
   548G11  C05636952   7.801   6.146  15.299
   548G11  C05536953   7.732   6.246  15.242
   548G11  C05436954   7.607   6.194  15.204
   548G11  C05336955   7.608   6.054  15.237
   548G11  C05236956   7.514   5.945  15.196
   548G11  C05136957   7.419   5.969  15.087
   548G11  C05U36958   7.399   6.092  15.012
   548G11  C05T36959   7.472   6.215  15.000
   548G11  C06K36960   7.385   6.298  14.923
   548G11  H00J36961   7.415   6.401  14.912
   548G11  C06L36962   7.272   6.228  14.881
   548G11  H00I36963   7.193   6.262  14.815
   548G11  C05V36964   7.282   6.094  14.935
   548G11  C06J36965   7.193   5.993  14.911
   548G11  H00K36966   7.106   6.005  14.848
   548G11  C05X36967   7.221   5.867  14.963
   548G11  C06I36968   7.142   5.755  14.927
   548G11  H00L36969   7.057   5.773  14.864
   548G11  C04Z36970   7.158   5.627  14.993
   548G11  C06H36971   7.068   5.518  14.959
   548G11  H00H36972   6.991   5.531  14.884
   548G11  C04Y36973   7.085   5.391  15.036
   548G11  C06G36974   6.997   5.285  15.009
   548G11  O00936975   6.912   5.288  14.923
   548G11  O00836976   7.008   5.172  15.075
   548G11  C04P36977   7.118   5.151  15.157
   548G11  C04J36978   7.138   5.025  15.228
   548G11  C04Q36979   7.055   4.910  15.237
   548G11  H00E36980   6.957   4.919  15.192
   548G11  C04M36981   7.092   4.787  15.297
   548G11  C04R36982   7.007   4.675  15.323
   548G11  H00F36983   6.902   4.674  15.298
   548G11  C04S36984   7.057   4.565  15.384
   548G11  H00G36985   6.987   4.484  15.402
   548G11  O00736986   7.187   4.557  15.430
   548G11  C03V36987   7.266   4.669  15.417
   548G11  C03U36988   7.397   4.666  15.464
   548G11  O00636989   7.442   4.541  15.504
   548G11  C03F36990   7.574   4.531  15.551
   548G11  C03E36991   7.660   4.642  15.548
   548G11  C03D36992   7.612   4.765  15.511
   548G11  C03C36993   7.697   4.882  15.519
   548G11  C03B36994   7.830   4.853  15.548
   548G11  C03A36995   7.914   4.967  15.564
   548G11  C03936996   7.874   5.103  15.552
   548G11  C03836997   8.003   5.181  15.575
   548G11  C03736998   8.099   5.080  15.609
   548G11  C03636999   8.221   5.118  15.640
   548G11  C02R37000   8.327   5.034  15.645
   548G11  C03537001   8.432   5.124  15.656
   548G11  C03R37002   8.395   5.260  15.661
   548G11  C03S37003   8.469   5.363  15.603
   548G11  C04937004   8.407   5.473  15.554
   548G11  C04837005   8.264   5.470  15.556
   548G11  C03P37006   8.182   5.352  15.582
   548G11  C04737007   8.214   5.601  15.533
   548G11  C04637008   8.077   5.633  15.533
   548G11  C04537009   7.966   5.559  15.547
   548G11  C03T37010   7.943   5.414  15.555
   548G11  C04437011   7.804   5.391  15.538
   548G11  C04337012   7.740   5.514  15.527
   548G11  C04237013   7.626   5.504  15.444
   548G11  C04137014   7.607   5.356  15.440
   548G11  C04037015   7.501   5.283  15.373
   548G11  C03Z37016   7.462   5.141  15.393
   548G11  C04H37017   7.336   5.129  15.324
   548G11  C04G37018   7.314   5.249  15.260
   548G11  C03N37019   7.516   5.016  15.442
   548G11  C03Y37020   7.430   4.901  15.429
   548G11  C03X37021   7.299   4.901  15.366
   548G11  C04F37022   7.406   5.348  15.292
   548G11  C04E37023   7.387   5.478  15.243
   548G11  C04O37024   7.280   5.494  15.149
   548G11  C04D37025   7.464   5.595  15.271
   548G11  C04V37026   7.439   5.715  15.207
   548G11  C04W37027   7.339   5.731  15.109
   548G11  C04C37028   7.563   5.618  15.369
   548G11  C04L37029   7.614   5.759  15.352
   548G11  C04U37030   7.721   5.814  15.423
   548G11  C05Q37031   7.769   5.939  15.404
   548G11  C05P37032   7.899   5.949  15.439
   548G11  C04T37033   7.938   5.819  15.487
   548G11  C04B37034   7.825   5.742  15.487
   548G11  C03M37035   7.718   5.277  15.500
   548G11  C04A37036   7.841   5.612  15.518
   548G11  C05H37037   8.066   5.774  15.514
   548G11  C05G37038   8.200   5.822  15.501
   548G11  C05F37039   8.227   5.950  15.458
   548G11  C05E37040   8.357   5.995  15.414
   548G11  C05L37041   8.497   5.945  15.413
   548G11  C05K37042   8.538   5.813  15.453
   548G11  C05J37043   8.442   5.710  15.492
   548G11  C06637044   8.677   5.788  15.438
   548G11  C06537045   8.773   5.882  15.391
   548G11  C06437046   8.729   6.006  15.348
   548G11  C06N37047   8.907   5.848  15.380
   548G11  C06937048   8.953   5.722  15.414
   548G11  C06P37049   9.090   5.690  15.390
   548G11  C06R37050   9.133   5.556  15.408
   548G11  C06B37051   9.042   5.466  15.456
   548G11  C06S37052   9.079   5.336  15.466
   548G11  C02G37053   8.990   5.240  15.505
   548G11  C02F37054   9.029   5.108  15.507
   548G11  C02737055   9.158   5.073  15.499
   548G11  C02637056   9.202   4.947  15.516
   548G11  C00E37057   9.336   4.912  15.513
   548G11  C00D37058   9.373   4.778  15.532
   548G11  C00C37059   9.508   4.747  15.530
   548G11  C00B37060   9.603   4.832  15.482
   548G11  C01537061   9.562   4.965  15.462
   548G11  C07F37062   9.649   5.056  15.407
   548G11  C07E37063   9.610   5.184  15.381
   548G11  C06W37064   9.478   5.227  15.417
   548G11  C06V37065   9.390   5.136  15.465
   548G11  C06X37066   9.438   5.354  15.395
   548G11  C07B37067   9.529   5.443  15.341
   548G11  C07C37068   9.659   5.402  15.301
   548G11  C0FU37069   9.743   5.497  15.255
   548G11  C0F737070   9.872   5.460  15.216
   548G11  C0F637071   9.962   5.553  15.160
   548G11  C0F837072  10.086   5.508  15.119
   548G11  C0F937073  10.176   5.599  15.074
   548G11  C0FA37074  10.300   5.563  15.024
   548G11  C0FZ37075  10.331   5.428  15.029
   548G11  C0G037076  10.445   5.386  14.972
   548G11  C0GD37077  10.543   5.472  14.923
   548G11  C0FC37078  10.520   5.608  14.934
   548G11  C0GH37079  10.614   5.701  14.895
   548G11  C0EY37080  10.586   5.839  14.910
   548G11  C0EX37081  10.686   5.934  14.891
   548G11  C0EW37082  10.656   6.066  14.913
   548G11  C0FR37083  10.758   6.168  14.903
   548G11  H01D37084  10.746   6.273  14.921
   548G11  C0FS37085  10.892   6.133  14.868
   548G11  H01C37086  10.977   6.199  14.875
   548G11  C0GJ37087  10.918   5.997  14.841
   548G11  H01N37088  11.019   5.966  14.822
   548G11  C0EV37089  10.528   6.111  14.926
   548G11  C0FT37090  10.488   6.246  14.926
   548G11  H01E37091  10.553   6.328  14.900
   548G11  C0EU37092  10.431   6.013  14.945
   548G11  C0ET37093  10.297   6.043  14.960
   548G11  C0EI37094  10.190   5.960  14.993
   548G11  C0F137095  10.224   5.825  15.007
   548G11  C0F037096  10.354   5.785  14.968
   548G11  C0EH37097  10.058   6.010  15.016
   548G11  C0EG37098  10.018   6.146  14.987
   548G11  C0EJ37099   9.967   5.915  15.063
   548G11  C0F337100  10.005   5.776  15.086
   548G11  C0EK37101   9.835   5.958  15.102
   548G11  C0EL37102   9.790   6.097  15.077
   548G11  C0EM37103   9.657   6.118  15.124
   548G11  C0EN37104   9.587   6.015  15.178
   548G11  C07I37105   9.451   6.054  15.210
   548G11  C07437106   9.357   5.957  15.253
   548G11  C07337107   9.227   5.999  15.267
   548G11  C07237108   9.137   5.911  15.320
   548G11  C07537109   9.407   5.832  15.281
   548G11  C07637110   9.540   5.798  15.251
   548G11  C07837111   9.577   5.667  15.270
   548G11  C07G37112   9.317   5.743  15.328
   548G11  C07037113   9.354   5.611  15.343
   548G11  C07Z37114   9.423   6.180  15.165
   548G11  C07737115   9.633   5.889  15.202
   548G11  C0EO37116   9.754   5.855  15.158
   548G11  C0F437117   9.791   5.722  15.179
   548G11  C0EQ37118  10.260   6.179  14.947
   548G11  C0FQ37119  10.814   5.893  14.854
   548G11  C0GI37120  10.837   5.757  14.823
   548G11  H01L37121  10.932   5.727  14.781
   548G11  C0EZ37122  10.453   5.879  14.944
   548G11  C0GG37123  10.737   5.660  14.843
   548G11  C0GF37124  10.760   5.522  14.829
   548G11  H01M37125  10.843   5.489  14.768
   548G11  C0GE37126  10.668   5.425  14.867
   548G11  H01K37127  10.679   5.320  14.844
   548G11  O00J37128  10.483   5.256  14.986
   548G11  C0GA37129  10.407   5.163  15.041
   548G11  C0G937130  10.439   5.031  15.046
   548G11  H01H37131  10.531   5.011  14.993
   548G11  C0G837132  10.357   4.934  15.103
   548G11  C0G737133  10.382   4.792  15.098
   548G11  H01I37134  10.474   4.758  15.054
   548G11  O00I37135  10.292   4.699  15.139
   548G11  C0G637136  10.184   4.748  15.203
   548G11  H01J37137  10.118   4.670  15.238
   548G11  C02D37138  10.153   4.887  15.222
   548G11  C02C37139  10.031   4.932  15.291
   548G11  C01737140   9.944   4.839  15.355
   548G11  C01637141   9.813   4.877  15.393
   548G11  O00137142   9.988   4.715  15.394
   548G11  C01837143   9.900   4.609  15.425
   548G11  C00937144   9.767   4.644  15.454
   548G11  C00837145   9.656   4.561  15.497
   548G11  C00737146   9.643   4.415  15.516
   548G11  C00637147   9.735   4.318  15.484
   548G11  C00537148   9.712   4.180  15.498
   548G11  C00437149   9.590   4.112  15.545
   548G11  C00337150   9.447   4.149  15.552
   548G11  C00237151   9.346   4.050  15.567
   548G11  C00P37152   9.203   4.081  15.566
   548G11  C00O37153   9.100   3.982  15.565
   548G11  C00N37154   8.966   4.015  15.551
   548G11  C01037155   8.862   3.926  15.536
   548G11  C01137156   8.727   3.960  15.534
   548G11  C01Q37157   8.632   3.862  15.530
   548G11  C01U37158   8.669   3.728  15.528
   548G11  C01237159   8.808   3.694  15.534
   548G11  H00037160   8.833   3.590  15.550
   548G11  C01V37161   8.563   3.632  15.520
   548G11  H00737162   8.587   3.528  15.536
   548G11  O00537163   8.429   3.664  15.520
   548G11  C01W37164   8.401   3.794  15.504
   548G11  C03137165   8.263   3.817  15.486
   548G11  C03237166   8.229   3.953  15.462
   548G11  H00A37167   8.127   3.971  15.431
   548G11  C03337168   8.321   4.060  15.478
   548G11  H00B37169   8.294   4.163  15.461
   548G11  C01O37170   8.459   4.036  15.518
   548G11  C01N37171   8.552   4.135  15.531
   548G11  C01M37172   8.515   4.283  15.533
   548G11  C01L37173   8.406   4.386  15.552
   548G11  C01K37174   8.469   4.509  15.533
   548G11  C01Y37175   8.425   4.643  15.555
   548G11  C02I37176   8.289   4.661  15.571
   548G11  C02N37177   8.247   4.793  15.593
   548G11  C02M37178   8.112   4.815  15.602
   548G11  C02L37179   8.024   4.706  15.591
   548G11  C02K37180   8.072   4.569  15.599
   548G11  C02U37181   7.980   4.471  15.617
   548G11  C02V37182   7.847   4.495  15.607
   548G11  C03H37183   7.757   4.388  15.610
   548G11  H00C37184   7.780   4.283  15.621
   548G11  C02W37185   8.029   4.346  15.667
   548G11  C02X37186   8.169   4.329  15.655
   548G11  C02Y37187   8.194   4.203  15.712
   548G11  H00837188   8.282   4.141  15.723
   548G11  C02Z37189   8.066   4.157  15.773
   548G11  O00437190   8.050   4.058  15.848
   548G11  O00337191   7.964   4.245  15.735
   548G11  C02J37192   8.209   4.542  15.587
   548G11  C01Z37193   8.522   4.741  15.547
   548G11  C02037194   8.655   4.713  15.528
   548G11  C01I37195   8.698   4.590  15.503
   548G11  C01H37196   8.830   4.545  15.513
   548G11  C00K37197   8.866   4.415  15.528
   548G11  C01S37198   8.772   4.314  15.522
   548G11  C01437199   8.799   4.183  15.528
   548G11  C00J37200   8.994   4.382  15.545
   548G11  C00I37201   9.090   4.477  15.551
   548G11  C00H37202   9.054   4.616  15.534
   548G11  C00G37203   9.145   4.718  15.538
   548G11  C00S37204   9.223   4.448  15.565
   548G11  C00T37205   9.311   4.548  15.559
   548G11  C00U37206   9.446   4.517  15.563
   548G11  C00R37207   9.265   4.312  15.559
   548G11  C00L37208   9.032   4.247  15.559
   548G11  C02837209   8.922   4.645  15.520
   548G11  C02337210   8.881   4.777  15.523
   548G11  C02437211   8.975   4.881  15.527
   548G11  C02137212   8.747   4.811  15.532
   548G11  C02237213   8.711   4.937  15.555
   548G11  C02H37214   8.805   5.041  15.548
   548G11  C03037215   8.772   5.172  15.559
   548G11  C03437216   8.645   5.203  15.590
   548G11  C02P37217   8.585   4.967  15.591
   548G11  C02B37218   8.481   4.868  15.584
   548G11  C01J37219   8.600   4.487  15.513
   548G11  C01X37220   8.267   4.409  15.596
   548G11  C01T37221   8.636   4.356  15.523
   548G11  H00937222   8.200   3.730  15.492
   548G11  C01P37223   8.495   3.901  15.519
   548G11  C01R37224   8.691   4.095  15.534
   548G11  C00Z37225   8.905   3.795  15.539
   548G11  O00037226   9.037   3.757  15.544
   548G11  C00M37227   8.932   4.148  15.541
   548G11  C00Y37228   9.142   3.851  15.558
   548G11  C01337229   9.274   3.813  15.570
   548G11  H00137230   9.293   3.707  15.568
   548G11  C00Q37231   9.164   4.213  15.555
   548G11  C00137232   9.384   3.909  15.568
   548G11  C00037233   9.521   3.879  15.576
   548G11  H00637234   9.559   3.778  15.585
   548G11  C00W37235   9.406   4.282  15.553
   548G11  C01G37236   9.622   3.974  15.565
   548G11  H00537237   9.722   3.934  15.562
   548G11  C01C37238   9.839   4.124  15.468
   548G11  H00237239   9.855   4.017  15.469
   548G11  C01B37240   9.928   4.229  15.434
   548G11  C01D37241  10.065   4.218  15.387
   548G11  H00337242  10.127   4.129  15.386
   548G11  C01E37243  10.121   4.340  15.350
   548G11  H00437244  10.224   4.340  15.316
   548G11  O00237245  10.061   4.466  15.356
   548G11  C01A37246   9.868   4.351  15.444
   548G11  C00V37247   9.499   4.390  15.540
   548G11  C01937248   9.939   4.471  15.412
   548G11  C02E37249   9.990   5.064  15.277
   548G11  C0FX37250  10.077   5.154  15.212
   548G11  C0FW37251  10.041   5.287  15.198
   548G11  C0GB37252  10.201   5.111  15.159
   548G11  C0G337253   9.861   5.100  15.311
   548G11  C07H37254   9.829   5.236  15.295
   548G11  C0GC37255  10.239   4.978  15.162
   548G11  C0G237256  10.286   5.205  15.103
   548G11  C0G137257  10.244   5.334  15.089
   548G11  C0FB37258  10.394   5.651  14.976
   548G11  C0F237259  10.133   5.734  15.054
   548G11  C0FY37260  10.124   5.374  15.137
   548G11  C0F537261   9.917   5.685  15.136
   548G11  C0FV37262   9.914   5.327  15.239
   548G11  C07937263   9.703   5.629  15.232
   548G11  C07A37264   9.486   5.578  15.324
   548G11  C06Y37265   9.304   5.391  15.410
   548G11  C07D37266   9.699   5.274  15.324
   548G11  C01F37267   9.775   5.008  15.370
   548G11  C00A37268   9.724   4.781  15.444
   548G11  C00X37269   9.537   4.614  15.539
   548G11  C00F37270   9.276   4.684  15.549
   548G11  C02937271   9.429   5.003  15.483
   548G11  C02537272   9.107   4.848  15.531
   548G11  C06U37273   9.254   5.170  15.478
   548G11  C02A37274   8.938   5.009  15.525
   548G11  C05Y37275   8.860   5.270  15.528
   548G11  C05Z37276   8.819   5.400  15.515
   548G11  C06037277   8.689   5.433  15.537
   548G11  C06237278   8.635   5.561  15.516
   548G11  C06T37279   9.210   5.299  15.450
   548G11  C06A37280   8.910   5.499  15.484
   548G11  C06Z37281   9.264   5.518  15.385
   548G11  C06Q37282   9.180   5.783  15.344
   548G11  C06837283   8.864   5.623  15.457
   548G11  C06737284   8.729   5.657  15.469
   548G11  C06337285   8.592   6.038  15.358
   548G11  C06C37286   8.554   6.163  15.294
   548G11  C06D37287   8.420   6.197  15.282
   548G11  C06E37288   8.370   6.297  15.200
   548G11  C07Q37289   8.458   6.367  15.130
   548G11  C07P37290   8.599   6.352  15.153
   548G11  C07T37291   8.686   6.428  15.079
   548G11  C07U37292   8.822   6.410  15.088
   548G11  C07V37293   8.912   6.488  15.018
   548G11  C08437294   8.863   6.586  14.936
   548G11  C08C37295   8.728   6.597  14.919
   548G11  C08B37296   8.682   6.691  14.826
   548G11  C08A37297   8.546   6.702  14.808
   548G11  C08937298   8.455   6.622  14.869
   548G11  C08837299   8.318   6.629  14.829
   548G11  C08737300   8.230   6.553  14.899
   548G11  C08637301   8.271   6.474  15.007
   548G11  C08X37302   8.278   6.705  14.719
   548G11  C08T37303   8.375   6.804  14.671
   548G11  C08D37304   8.497   6.541  14.971
   548G11  C08U37305   8.503   6.803  14.728
   548G11  C08V37306   8.590   6.888  14.665
   548G11  C0CY37307   8.726   6.866  14.669
   548G11  C0CX37308   8.800   6.938  14.583
   548G11  C0CW37309   8.936   6.914  14.583
   548G11  C0CV37310   8.991   6.827  14.675
   548G11  C0D437311   8.904   6.760  14.762
   548G11  C0CU37312   9.120   6.805  14.682
   548G11  C0CT37313   9.213   6.872  14.599
   548G11  C0CS37314   9.160   6.972  14.515
   548G11  C0D637315   9.162   6.713  14.776
   548G11  C0EC37316   9.081   6.640  14.865
   548G11  C07X37317   9.132   6.547  14.955
   548G11  C0DL37318   9.301   6.706  14.788
   548G11  C0DK37319   9.353   6.610  14.881
   548G11  C0DN37320   9.490   6.619  14.863
   548G11  C0D837321   9.398   6.762  14.706
   548G11  C08W37322   8.523   6.954  14.562
   548G11  C0CQ37323   8.602   7.042  14.473
   548G11  C09337324   8.770   6.770  14.754
   548G11  C09237325   8.949   6.666  14.856
   548G11  C08537326   8.638   6.524  14.991
   548G11  C07S37327   8.407   6.461  15.039
   548G11  C06F37328   8.234   6.316  15.181
   548G11  C07O37329   8.644   6.246  15.229
   548G11  C07N37330   8.777   6.213  15.228
   548G11  C05D37331   8.335   6.121  15.361
   548G11  C05C37332   8.201   6.155  15.359
   548G11  C05N37333   8.133   6.047  15.413
   548G11  C05M37334   8.296   5.719  15.508
   548G11  C05I37335   8.491   5.582  15.523
   548G11  C06137336   8.602   5.333  15.580
   548G11  C02Q37337   8.559   5.098  15.616
   548G11  C02O37338   8.344   4.898  15.602
   548G11  C03Q37339   8.262   5.252  15.632
   548G11  C03O37340   8.041   5.320  15.571
   548G11  C03L37341   7.740   5.131  15.517
   548G11  C02S37342   8.052   4.947  15.594
   548G11  C02T37343   7.887   4.730  15.572
   548G11  C03K37344   7.648   5.011  15.497
   548G11  C03I37345   7.797   4.621  15.577
   548G11  C03G37346   7.620   4.406  15.583
   548G11  H00D37347   7.558   4.317  15.576
   548G11  C03J37348   7.478   4.780  15.478
   548G11  C03W37349   7.219   4.786  15.354
   548G11  C04I37350   7.256   5.013  15.303
   548G11  C04K37351   7.203   5.257  15.183
   548G11  C04N37352   7.186   5.383  15.125
   548G11  C04X37353   7.257   5.618  15.085
   548G11  C05037354   7.329   5.858  15.053
   548G11  C05W37355   7.530   5.817  15.248
   548G11  C05S37356   7.591   6.257  15.079
   548G11  C05R37357   7.718   6.037  15.322
   548G11  C05O37358   7.995   6.043  15.396
   548G11  C05B37359   8.146   6.244  15.262
   548G11  C05A37360   7.811   6.316  15.146
   548G11  C07R37361   8.181   6.400  15.088
   548G11  C08N37362   8.089   6.559  14.864
   548G11  C08M37363   8.049   6.626  14.746
   548G11  C08L37364   7.914   6.632  14.714
   548G11  C09137365   7.709   6.338  15.048
   548G11  C09K37366   7.544   6.626  14.936
   548G11  H00M37367   7.526   6.648  15.040
   548G11  C08K37368   7.820   6.561  14.793
   548G11  C09J37369   7.513   6.703  14.812
   548G11  C09I37370   7.476   6.836  14.777
   548G11  C09L37371   7.376   6.920  14.821
   548G11  H00N37372   7.301   6.885  14.890
   548G11  C09Q37373   7.375   7.042  14.759
   548G11  H00O37374   7.296   7.110  14.785
   548G11  O00B37375   7.454   7.086  14.651
   548G11  C09G37376   7.544   7.003  14.604
   548G11  C09F37377   7.622   7.065  14.501
   548G11  O00A37378   7.577   7.193  14.466
   548G11  C09P37379   7.637   7.241  14.354
   548G11  H00P37380   7.586   7.229  14.259
   548G11  C09O37381   7.779   7.229  14.351
   548G11  C09D37382   7.827   7.096  14.368
   548G11  C09C37383   7.959   7.046  14.338
   548G11  C09N37384   8.080   7.110  14.285
   548G11  C09T37385   8.100   7.245  14.316
   548G11  C09S37386   8.000   7.344  14.327
   548G11  C0CP37387   8.077   7.466  14.328
   548G11  C0CN37388   8.215   7.448  14.330
   548G11  C0CO37389   8.303   7.553  14.342
   548G11  H01437390   8.411   7.545  14.333
   548G11  C0CZ37391   8.236   7.677  14.353
   548G11  H01537392   8.299   7.764  14.354
   548G11  C0D037393   8.100   7.697  14.376
   548G11  C0G537394   8.035   7.818  14.421
   548G11  H01F37395   8.098   7.902  14.447
   548G11  C0G437396   7.896   7.826  14.436
   548G11  H01G37397   7.859   7.921  14.472
   548G11  O00H37398   7.810   7.720  14.409
   548G11  C0D237399   7.875   7.603  14.377
   548G11  C09V37400   7.801   7.477  14.357
   548G11  H00Q37401   7.698   7.504  14.376
   548G11  C0D137402   8.015   7.588  14.361
   548G11  C09R37403   7.861   7.346  14.337
   548G11  C09H37404   7.556   6.877  14.665
   548G11  C09E37405   7.738   7.005  14.439
   548G11  C09B37406   7.992   6.914  14.354
   548G11  C08Z37407   7.876   6.709  14.600
   548G11  C08O37408   8.147   6.702  14.668
   548G11  C09A37409   8.125   6.881  14.331
   548G11  C08S37410   8.381   6.907  14.571
   548G11  C09937411   8.184   7.009  14.290
   548G11  C09U37412   8.230   7.309  14.300
   548G11  C0BO37413   8.669   7.391  14.148
   548G11  C0CL37414   8.542   7.126  14.380
   548G11  C0D337415   8.744   7.029  14.495
   548G11  C0D537416   9.024   6.990  14.503
   548G11  C0BR37417   8.863   7.275  14.248
   548G11  C0BQ37418   8.808   7.370  14.160
   548G11  C0BL37419   8.710   7.590  14.007
   548G11  C0AF37420   8.876   7.768  13.886
   548G11  C0BH37421   9.119   7.528  14.030
   548G11  C0BG37422   9.254   7.514  14.055
   548G11  C0BD37423   9.294   7.708  13.906
   548G11  C0AG37424   8.966   7.852  13.829
   548G11  C0AI37425   8.994   8.085  13.764
   548G11  C0AV37426   9.147   8.295  13.815
   548G11  C0BB37427   9.393   8.032  13.759
   548G11  O00C37428   9.381   8.366  13.864
   548G11  C0BC37429   9.528   8.043  13.789
   548G11  C0B937430   9.383   7.808  13.858
   548G11  O00E37431   9.696   7.693  14.000
   548G11  C0CA37432   9.755   7.591  14.060
   548G11  O00F37433   9.875   7.591  14.079
   548G11  C0BF37434   9.339   7.612  13.992
   548G11  C0C537435   9.666   7.487  14.096
   548G11  C0C437436   9.724   7.374  14.162
   548G11  H01137437   9.830   7.359  14.177
   548G11  C0C837438   9.306   7.415  14.130
   548G11  C0C237439   9.637   7.274  14.213
   548G11  C0C337440   9.682   7.169  14.290
   548G11  C0DY37441   9.817   7.128  14.307
   548G11  H01637442   9.906   7.158  14.254
   548G11  C0DX37443   9.803   7.006  14.380
   548G11  C0DW37444   9.913   6.919  14.380
   548G11  C0BY37445   9.277   7.227  14.274
   548G11  C0DB37446   9.597   7.083  14.357
   548G11  C0CC37447   9.244   7.039  14.430
   548G11  C0D737448   9.353   6.844  14.600
   548G11  C0DZ37449   9.667   6.979  14.428
   548G11  C0DM37450   9.526   6.707  14.755
   548G11  C0DQ37451   9.823   6.752  14.551
   548G11  C0DV37452   9.917   6.807  14.462
   548G11  C0E037453  10.047   6.935  14.323
   548G11  C0FO37454  10.344   6.853  14.478
   548G11  C0E337455  10.134   7.053  14.309
   548G11  H01737456  10.105   7.156  14.329
   548G11  C0GV37457  10.408   6.972  14.490
   548G11  C0ES37458  10.327   6.767  14.590
   548G11  C0GQ37459  10.571   6.942  14.809
   548G11  C0FJ37460  10.514   6.658  15.041
   548G11  C0ED37461  10.322   6.605  14.836
   548G11  C0ER37462  10.353   6.276  14.941
   548G11  C0EP37463  10.132   6.225  14.950
   548G11  C0E637464  10.074   6.550  14.757
   548G11  C0DE37465   9.794   6.539  14.869
   548G11  C0EA37466   9.880   6.190  15.012
   548G11  C0DF37467   9.692   6.510  14.960
   548G11  C08037468   9.553   6.219  15.123
   548G11  C0DO37469   9.553   6.528  14.938
   548G11  C0DJ37470   9.272   6.526  14.961
   548G11  C07K37471   9.284   6.221  15.164
   548G11  C07W37472   9.047   6.464  15.023
   548G11  C08337473   8.867   6.296  15.163
   548G11  C07J37474   9.190   6.126  15.222
   548G11  C06O37475   9.001   5.944  15.332
   548G11  C06M37476   8.818   6.095  15.293
   558G11  C07137477   3.635   1.278  11.062
   558G11  C07L37478   3.676   1.270  10.923
   558G11  C07M37479   3.578   1.289  10.824
   558G11  C07Y37480   3.610   1.263  10.685
   558G11  C08137481   3.738   1.219  10.646
   558G11  C08237482   3.756   1.186  10.507
   558G11  C0DI37483   3.872   1.121  10.438
   558G11  C0DH37484   3.997   1.070  10.487
   558G11  C0DG37485   4.078   1.022  10.372
   558G11  C0E937486   4.157   0.899  10.355
   558G11  C0E837487   4.141   0.876  10.209
   558G11  C0E737488   4.206   0.783  10.111
   558G11  C0EB37489   4.312   0.702  10.162
   558G11  C0EF37490   4.382   0.604  10.081
   558G11  C0EE37491   4.332   0.515   9.985
   558G11  C0FD37492   4.343   0.378  10.007
   558G11  C0FE37493   4.388   0.313  10.127
   558G11  H01B37494   4.393   0.357  10.226
   558G11  C0FF37495   4.410   0.178  10.136
   558G11  H01A37496   4.439   0.135  10.230
   558G11  C0FG37497   4.379   0.095  10.028
   558G11  H01837498   4.377  -0.013  10.032
   558G11  C0FH37499   4.333   0.154   9.907
   558G11  C0FI37500   4.296   0.077   9.787
   558G11  H01937501   4.298  -0.031   9.796
   558G11  O00K37502   4.269   0.134   9.665
   558G11  C0FL37503   4.264   0.272   9.658
   558G11  C0FK37504   4.284   0.351   9.776
   558G11  C0FM37505   4.270   0.493   9.758
   558G11  C0FN37506   4.255   0.550   9.629
   558G11  C0FP37507   4.236   0.464   9.515
   558G11  C0GO37508   4.209   0.501   9.385
   558G11  C0GN37509   4.155   0.422   9.285
   558G11  C0GR37510   4.173   0.280   9.308
   558G11  C0GS37511   4.140   0.188   9.202
   558G11  H01Q37512   4.163   0.084   9.216
   558G11  C0GT37513   4.087   0.238   9.085
   558G11  H01O37514   4.070   0.177   8.998
   558G11  C0GU37515   4.058   0.375   9.075
   558G11  H01P37516   4.019   0.406   8.979
   558G11  O00L37517   4.226   0.235   9.431
   558G11  C0GM37518   4.092   0.470   9.171
   558G11  C0GL37519   4.068   0.614   9.164
   558G11  H01R37520   4.012   0.655   9.081
   558G11  C0GK37521   4.129   0.696   9.261
   558G11  C0GP37522   4.103   0.830   9.309
   558G11  C0E237523   4.181   0.858   9.426
   558G11  C0E137524   4.102   0.946   9.506
   558G11  C0DU37525   4.084   0.940   9.647
   558G11  C0DT37526   4.158   0.879   9.748
   558G11  C0E437527   4.225   0.761   9.727
   558G11  C0E537528   4.251   0.714   9.854
   558G11  C0DS37529   4.120   0.873   9.883
   558G11  C0DR37530   3.997   0.930   9.911
   558G11  C0DD37531   3.946   0.953  10.039
   558G11  C0DC37532   3.813   1.008  10.006
   558G11  C0DP37533   3.773   0.992   9.863
   558G11  C0DA37534   3.642   0.990   9.797
   558G11  C0D937535   3.512   1.033   9.851
   558G11  C0CR37536   3.392   1.009   9.774
   558G11  C0C037537   3.397   0.944   9.653
   558G11  C0BZ37538   3.290   0.903   9.575
   558G11  C0C137539   3.304   0.835   9.454
   558G11  C0C737540   3.190   0.782   9.386
   558G11  C0C637541   3.203   0.701   9.268
   558G11  C0C937542   3.091   0.657   9.203
   558G11  C0B837543   3.109   0.567   9.097
   558G11  C0B737544   3.003   0.517   9.023
   558G11  C0B637545   2.978   0.409   8.921
   558G11  C0B537546   3.033   0.278   8.917
   558G11  H00Z37547   3.121   0.243   8.968
   558G11  C0B437548   2.939   0.193   8.840
   558G11  H01037549   2.933   0.088   8.819
   558G11  C0B337550   2.818   0.274   8.810
   558G11  C0AP37551   2.674   0.283   8.783
   558G11  C0AQ37552   2.648   0.408   8.835
   558G11  C0AR37553   2.514   0.440   8.874
   558G11  C0AS37554   2.517   0.544   8.961
   558G11  C0AT37555   2.632   0.599   9.021
   558G11  C0BA37556   2.756   0.567   8.982
   558G11  C0AU37557   2.620   0.679   9.134
   558G11  C0BE37558   2.731   0.713   9.208
   558G11  C0BI37559   2.716   0.791   9.322
   558G11  C0BJ37560   2.589   0.826   9.366
   558G11  C0BK37561   2.574   0.908   9.475
   558G11  C0BW37562   2.684   0.943   9.552
   558G11  C0BV37563   2.813   0.906   9.516
   558G11  C0BU37564   2.921   0.938   9.595
   558G11  C0BX37565   3.047   0.900   9.547
   558G11  C0BT37566   2.906   1.005   9.715
   558G11  C0CD37567   3.019   1.037   9.786
   558G11  C0CB37568   3.149   1.010   9.746
   558G11  C0CE37569   3.005   1.110   9.905
   558G11  C0CK37570   2.873   1.141   9.947
   558G11  C0BS37571   2.764   1.111   9.872
   558G11  C0CJ37572   2.633   1.142   9.925
   558G11  C0BP37573   2.523   1.112   9.843
   558G11  C0CI37574   2.392   1.129   9.887
   558G11  C0CH37575   2.299   1.129   9.791
   558G11  H01237576   2.202   1.170   9.816
   558G11  C0BN37577   2.314   1.049   9.676
   558G11  C0CG37578   2.201   1.004   9.609
   558G11  C0CF37579   2.069   1.034   9.654
   558G11  H01337580   2.049   1.097   9.739
   558G11  O00G37581   1.952   0.983   9.606
   558G11  C0AA37582   1.964   0.898   9.497
   558G11  C0A937583   1.850   0.840   9.447
   558G11  H00U37584   1.759   0.862   9.500
   558G11  C0A837585   1.862   0.744   9.348
   558G11  H00V37586   1.771   0.687   9.337
   558G11  C0A737587   1.984   0.701   9.286
   558G11  C0A637588   2.105   0.765   9.335
   558G11  C0A537589   2.235   0.749   9.280
   558G11  C0A437590   2.256   0.664   9.162
   558G11  C0A337591   2.187   0.569   9.080
   558G11  C0A237592   2.060   0.519   9.110
   558G11  C0A137593   1.996   0.421   9.031
   558G11  C0A037594   2.036   0.322   8.927
   558G11  C09Z37595   1.934   0.241   8.874
   558G11  C09Y37596   1.964   0.129   8.787
   558G11  H00Y37597   1.885   0.064   8.751
   558G11  C09X37598   2.092   0.100   8.760
   558G11  C09W37599   2.125  -0.008   8.675
   558G11  H00R37600   2.051  -0.065   8.621
   558G11  C0AX37601   2.254  -0.053   8.653
   558G11  H00S37602   2.283  -0.143   8.600
   558G11  C0AW37603   2.355   0.027   8.699
   558G11  H00T37604   2.451  -0.000   8.658
   558G11  C0AN37605   2.336   0.144   8.769
   558G11  C0AO37606   2.439   0.229   8.799
   558G11  C0AM37607   2.198   0.180   8.805
   558G11  C0B237608   1.793   0.254   8.901
   558G11  O00D37609   1.706   0.173   8.859
   558G11  C0B137610   1.758   0.359   8.995
   558G11  H00W37611   1.655   0.368   9.024
   558G11  C0AL37612   2.173   0.299   8.880
   558G11  C0AK37613   2.283   0.383   8.911
   558G11  C0B037614   1.861   0.434   9.059
   558G11  C0AZ37615   1.837   0.531   9.154
   558G11  H00X37616   1.738   0.564   9.183
   558G11  C0AJ37617   2.278   0.500   8.996
   558G11  C0AH37618   2.382   0.674   9.110
   558G11  C0AE37619   2.345   0.814   9.334
   558G11  C0AD37620   2.334   0.890   9.454
   558G11  C0AY37621   1.963   0.589   9.194
   558G11  C0AB37622   2.092   0.860   9.438
   558G11  C0AC37623   2.207   0.918   9.500
   558G11  C0BM37624   2.437   1.014   9.638
   558G11  C0CM37625   2.367   1.153  10.026
   558G11  C09M37626   2.473   1.221  10.093
   558G11  C09837627   2.428   1.314  10.195
   558G11  C08R37628   2.495   1.370  10.308
   558G11  C08Q37629   2.413   1.456  10.389
   558G11  C08P37630   2.415   1.499  10.530
   558G11  C08Y37631   2.286   1.525  10.584
   558G11  C09737632   2.174   1.488  10.514
   558G11  C09637633   2.073   1.443  10.595
   558G11  C09037634   2.108   1.487  10.725
   558G11  C09537635   2.047   1.445  10.850
   558G11  C09437636   2.091   1.478  10.978
   558G11  C08J37637   2.213   1.542  11.020
   558G11  C08I37638   2.235   1.485  11.145
   558G11  C08H37639   2.378   1.503  11.179
   558G11  C08G37640   2.441   1.519  11.044
   558G11  C08F37641   2.576   1.537  10.996
   558G11  C08E37642   2.681   1.558  11.084
   558G11  C05937643   2.668   1.611  11.217
   558G11  C05837644   2.782   1.636  11.297
   558G11  C05737645   2.778   1.675  11.430
   558G11  C05637646   2.650   1.701  11.487
   558G11  C05537647   2.539   1.717  11.411
   558G11  C05437648   2.426   1.706  11.491
   558G11  C05337649   2.468   1.675  11.630
   558G11  C05237650   2.400   1.628  11.749
   558G11  C05137651   2.259   1.589  11.733
   558G11  C05U37652   2.177   1.579  11.613
   558G11  C05T37653   2.209   1.590  11.471
   558G11  C06K37654   2.085   1.603  11.401
   558G11  H00J37655   2.086   1.628  11.296
   558G11  C06L37656   1.977   1.586  11.492
   558G11  H00I37657   1.872   1.599  11.473
   558G11  C05V37658   2.036   1.564  11.620
   558G11  C06J37659   1.968   1.542  11.735
   558G11  H00K37660   1.862   1.527  11.720
   558G11  C05X37661   2.043   1.529  11.853
   558G11  C06I37662   1.988   1.495  11.974
   558G11  H00L37663   1.884   1.469  11.962
   558G11  C04Z37664   2.058   1.487  12.098
   558G11  C06H37665   1.992   1.437  12.211
   558G11  H00H37666   1.885   1.423  12.208
   558G11  C04Y37667   2.067   1.410  12.325
   558G11  C06G37668   1.994   1.378  12.450
   558G11  O00937669   1.871   1.379  12.457
   558G11  O00837670   2.070   1.367  12.561
   558G11  C04P37671   2.208   1.346  12.551
   558G11  C04J37672   2.297   1.312  12.664
   558G11  C04Q37673   2.256   1.283  12.796
   558G11  H00E37674   2.153   1.293  12.825
   558G11  C04M37675   2.348   1.247  12.900
   558G11  C04R37676   2.309   1.203  13.032
   558G11  H00F37677   2.203   1.207  13.054
   558G11  C04S37678   2.402   1.163  13.117
   558G11  H00G37679   2.367   1.115  13.207
   558G11  O00737680   2.538   1.164  13.089
   558G11  C03V37681   2.574   1.207  12.963
   558G11  C03U37682   2.708   1.206  12.927
   558G11  O00637683   2.792   1.156  13.021
   558G11  C03F37684   2.920   1.133  12.986
   558G11  C03E37685   2.972   1.166  12.864
   558G11  C03D37686   2.891   1.223  12.767
   558G11  C03C37687   2.941   1.260  12.644
   558G11  C03B37688   3.078   1.231  12.621
   558G11  C03A37689   3.140   1.271  12.503
   558G11  C03937690   3.065   1.335  12.403
   558G11  C03837691   3.162   1.355  12.297
   558G11  C03737692   3.282   1.309  12.351
   558G11  C03637693   3.402   1.314  12.292
   558G11  C02R37694   3.512   1.238  12.320
   558G11  C03537695   3.587   1.251  12.196
   558G11  C03R37696   3.509   1.309  12.100
   558G11  C03S37697   3.531   1.296  11.963
   558G11  C04937698   3.433   1.344  11.881
   558G11  C04837699   3.318   1.392  11.950
   558G11  C03P37700   3.289   1.389  12.088
   558G11  C04737701   3.231   1.461  11.856
   558G11  C04637702   3.108   1.517  11.879
   558G11  C04537703   3.027   1.527  11.998
   558G11  C03T37704   3.051   1.476  12.126
   558G11  C04437705   2.930   1.488  12.199
   558G11  C04337706   2.843   1.578  12.129
   558G11  C04237707   2.716   1.544  12.156
   558G11  C04137708   2.726   1.457  12.275
   558G11  C04037709   2.619   1.387  12.343
   558G11  C03Z37710   2.617   1.353  12.481
   558G11  C04H37711   2.486   1.339  12.520
   558G11  C04G37712   2.405   1.373  12.414
   558G11  C03N37713   2.716   1.316  12.577
   558G11  C03Y37714   2.663   1.279  12.706
   558G11  C03X37715   2.529   1.272  12.740
   558G11  C04F37716   2.484   1.404  12.306
   558G11  C04E37717   2.415   1.473  12.204
   558G11  C04O37718   2.270   1.464  12.205
   558G11  C04D37719   2.469   1.544  12.098
   558G11  C04V37720   2.388   1.573  11.985
   558G11  C04W37721   2.254   1.543  11.973
   558G11  C04C37722   2.601   1.571  12.066
   558G11  C04L37723   2.598   1.628  11.929
   558G11  C04U37724   2.715   1.675  11.854
   558G11  C05Q37725   2.719   1.696  11.710
   558G11  C05P37726   2.847   1.674  11.662
   558G11  C04T37727   2.927   1.625  11.763
   558G11  C04B37728   2.850   1.634  11.880
   558G11  C03M37729   2.864   1.431  12.312
   558G11  C04A37730   2.906   1.587  12.001
   558G11  C05H37731   3.059   1.573  11.761
   558G11  C05G37732   3.154   1.544  11.656
   558G11  C05F37733   3.141   1.586  11.523
   558G11  C05E37734   3.214   1.528  11.416
   558G11  C05L37735   3.328   1.435  11.399
   558G11  C05K37736   3.410   1.387  11.508
   558G11  C05J37737   3.379   1.400  11.648
   558G11  C06637738   3.527   1.319  11.468
   558G11  C06537739   3.558   1.301  11.332
   558G11  C06437740   3.473   1.342  11.229
   558G11  C06N37741   3.677   1.238  11.295
   558G11  C06937742   3.764   1.180  11.392
   558G11  C06P37743   3.880   1.114  11.357
   558G11  C06R37744   3.955   1.049  11.458
   558G11  C06B37745   3.925   1.069  11.587
   558G11  C06S37746   3.999   0.998  11.688
   558G11  C02G37747   3.963   1.000  11.820
   558G11  C02F37748   4.026   0.915  11.914
   558G11  C02737749   4.129   0.827  11.877
   558G11  C02637750   4.173   0.735  11.967
   558G11  C00E37751   4.259   0.637  11.925
   558G11  C00D37752   4.301   0.548  12.021
   558G11  C00C37753   4.383   0.445  11.976
   558G11  C00B37754   4.417   0.418  11.844
   558G11  C01537755   4.373   0.511  11.751
   558G11  C07F37756   4.397   0.498  11.617
   558G11  C07E37757   4.348   0.592  11.528
   558G11  C06W37758   4.273   0.708  11.567
   558G11  C06V37759   4.245   0.715  11.702
   558G11  C06X37760   4.220   0.792  11.476
   558G11  C07B37761   4.246   0.772  11.342
   558G11  C07C37762   4.324   0.664  11.299
   558G11  C0FU37763   4.344   0.638  11.167
   558G11  C0F737764   4.418   0.532  11.118
   558G11  C0F637765   4.432   0.512  10.984
   558G11  C0F837766   4.494   0.394  10.943
   558G11  C0F937767   4.518   0.376  10.808
   558G11  C0FA37768   4.585   0.262  10.767
   558G11  C0FZ37769   4.623   0.164  10.859
   558G11  C0G037770   4.685   0.042  10.816
   558G11  C0GD37771   4.717   0.025  10.681
   558G11  C0FC37772   4.702   0.133  10.592
   558G11  C0GH37773   4.757   0.127  10.464
   558G11  C0EY37774   4.742   0.240  10.383
   558G11  C0EX37775   4.813   0.249  10.262
   558G11  C0EW37776   4.795   0.358  10.178
   558G11  C0FR37777   4.873   0.374  10.060
   558G11  H01D37778   4.871   0.466  10.003
   558G11  C0FS37779   4.958   0.270  10.020
   558G11  H01C37780   5.019   0.282   9.932
   558G11  C0GJ37781   4.966   0.154  10.095
   558G11  H01N37782   5.027   0.073  10.057
   558G11  C0EV37783   4.691   0.446  10.204
   558G11  C0FT37784   4.623   0.510  10.101
   558G11  H01E37785   4.644   0.483   9.999
   558G11  C0EU37786   4.635   0.452  10.333
   558G11  C0ET37787   4.543   0.545  10.370
   558G11  C0EI37788   4.492   0.559  10.491
   558G11  C0F137789   4.537   0.463  10.585
   558G11  C0F037790   4.611   0.353  10.547
   558G11  C0EH37791   4.395   0.657  10.519
   558G11  C0EG37792   4.329   0.732  10.417
   558G11  C0EJ37793   4.365   0.681  10.654
   558G11  C0F337794   4.420   0.594  10.751
   558G11  C0EK37795   4.278   0.779  10.698
   558G11  C0EL37796   4.210   0.856  10.598
   558G11  C0EM37797   4.120   0.958  10.657
   558G11  C0EN37798   4.111   0.966  10.796
   558G11  C07I37799   4.009   1.051  10.837
   558G11  C07437800   3.984   1.074  10.970
   558G11  C07337801   3.877   1.160  10.995
   558G11  C07237802   3.840   1.165  11.127
   558G11  C07537803   4.053   1.000  11.059
   558G11  C07637804   4.144   0.904  11.020
   558G11  C07837805   4.202   0.825  11.115
   558G11  C07G37806   4.025   1.024  11.190
   558G11  C07037807   4.092   0.949  11.289
   558G11  C07Z37808   3.946   1.106  10.725
   558G11  C07737809   4.176   0.888  10.887
   558G11  C0EO37810   4.258   0.790  10.840
   558G11  C0F437811   4.306   0.706  10.935
   558G11  C0EQ37812   4.490   0.622  10.270
   558G11  C0FQ37813   4.898   0.145  10.219
   558G11  C0GI37814   4.898   0.030  10.297
   558G11  H01L37815   4.957  -0.055  10.265
   558G11  C0EZ37816   4.657   0.347  10.419
   558G11  C0GG37817   4.821   0.014  10.414
   558G11  C0GF37818   4.808  -0.101  10.491
   558G11  H01M37819   4.847  -0.193  10.449
   558G11  C0GE37820   4.768  -0.093  10.622
   558G11  H01K37821   4.765  -0.174  10.694
   558G11  O00J37822   4.702  -0.058  10.907
   558G11  C0GA37823   4.667  -0.041  11.035
   558G11  C0G937824   4.676  -0.148  11.124
   558G11  H01H37825   4.715  -0.242  11.086
   558G11  C0G837826   4.659  -0.133  11.259
   558G11  C0G737827   4.680  -0.239  11.354
   558G11  H01I37828   4.701  -0.339  11.320
   558G11  O00I37829   4.688  -0.217  11.482
   558G11  C0G637830   4.673  -0.089  11.526
   558G11  H01J37831   4.709  -0.067  11.626
   558G11  C02D37832   4.630   0.020  11.440
   558G11  C02C37833   4.579   0.145  11.484
   558G11  C01737834   4.555   0.169  11.624
   558G11  C01637835   4.500   0.286  11.670
   558G11  O00137836   4.581   0.070  11.717
   558G11  C01837837   4.539   0.078  11.844
   558G11  C00937838   4.494   0.195  11.902
   558G11  C00837839   4.457   0.221  12.033
   558G11  C00737840   4.456   0.144  12.154
   558G11  C00637841   4.469   0.003  12.159
   558G11  C00537842   4.431  -0.077  12.276
   558G11  C00437843   4.359  -0.047  12.398
   558G11  C00337844   4.299   0.074  12.448
   558G11  C00237845   4.219   0.068  12.567
   558G11  C00P37846   4.158   0.185  12.617
   558G11  C00O37847   4.077   0.183  12.732
   558G11  C00N37848   4.023   0.294  12.794
   558G11  C01037849   3.951   0.288  12.913
   558G11  C01137850   3.874   0.397  12.959
   558G11  C01Q37851   3.795   0.392  13.079
   558G11  C01U37852   3.779   0.268  13.146
   558G11  C01237853   3.850   0.158  13.089
   558G11  H00037854   3.844   0.063  13.140
   558G11  C01V37855   3.698   0.260  13.259
   558G11  H00737856   3.694   0.164  13.309
   558G11  O00537857   3.634   0.368  13.314
   558G11  C01W37858   3.661   0.492  13.252
   558G11  C03137859   3.596   0.606  13.307
   558G11  C03237860   3.616   0.728  13.243
   558G11  H00A37861   3.569   0.814  13.290
   558G11  C03337862   3.689   0.743  13.124
   558G11  H00B37863   3.708   0.835  13.071
   558G11  C01O37864   3.736   0.628  13.059
   558G11  C01N37865   3.792   0.633  12.933
   558G11  C01M37866   3.794   0.750  12.846
   558G11  C01L37867   3.698   0.854  12.802
   558G11  C01K37868   3.755   0.917  12.688
   558G11  C01Y37869   3.689   1.000  12.598
   558G11  C02I37870   3.562   1.044  12.633
   558G11  C02N37871   3.495   1.129  12.542
   558G11  C02M37872   3.361   1.169  12.570
   558G11  C02L37873   3.295   1.126  12.683
   558G11  C02K37874   3.366   1.040  12.770
   558G11  C02U37875   3.295   0.988  12.878
   558G11  C02V37876   3.171   1.043  12.918
   558G11  C03H37877   3.118   1.014  13.047
   558G11  H00C37878   3.168   0.959  13.126
   558G11  C02W37879   3.335   0.868  12.936
   558G11  C02X37880   3.464   0.830  12.902
   558G11  C02Y37881   3.459   0.689  12.939
   558G11  H00837882   3.530   0.613  12.912
   558G11  C02Z37883   3.331   0.660  13.023
   558G11  O00437884   3.309   0.558  13.090
   558G11  O00337885   3.259   0.779  13.018
   558G11  C02J37886   3.496   0.989  12.740
   558G11  C01Z37887   3.748   1.014  12.476
   558G11  C02037888   3.865   0.940  12.439
   558G11  C01I37889   3.924   0.857  12.530
   558G11  C01H37890   4.007   0.757  12.497
   558G11  C00K37891   4.037   0.650  12.584
   558G11  C01S37892   3.976   0.643  12.706
   558G11  C01437893   3.964   0.524  12.777
   558G11  C00J37894   4.104   0.539  12.532
   558G11  C00I37895   4.161   0.541  12.408
   558G11  C00H37896   4.141   0.654  12.321
   558G11  C00G37897   4.184   0.650  12.193
   558G11  C00S37898   4.236   0.435  12.365
   558G11  C00T37899   4.291   0.449  12.244
   558G11  C00U37900   4.366   0.341  12.199
   558G11  C00R37901   4.239   0.311  12.434
   558G11  C00L37902   4.106   0.420  12.607
   558G11  C02837903   4.053   0.757  12.367
   558G11  C02337904   4.007   0.842  12.272
   558G11  C02437905   4.049   0.839  12.139
   558G11  C02137906   3.911   0.930  12.307
   558G11  C02237907   3.846   1.011  12.212
   558G11  C02H37908   3.885   1.001  12.080
   558G11  C03037909   3.822   1.082  11.989
   558G11  C03437910   3.722   1.166  12.025
   558G11  C02P37911   3.734   1.089  12.252
   558G11  C02B37912   3.683   1.085  12.380
   558G11  C01J37913   3.884   0.863  12.664
   558G11  C01X37914   3.556   0.883  12.816
   558G11  C01T37915   3.899   0.755  12.755
   558G11  H00937916   3.538   0.594  13.397
   558G11  C01P37917   3.731   0.504  13.128
   558G11  C01R37918   3.877   0.522  12.892
   558G11  C00Z37919   3.938   0.164  12.972
   558G11  O00037920   3.993   0.052  12.922
   558G11  C00M37921   4.030   0.412  12.727
   558G11  C00Y37922   4.058   0.060  12.799
   558G11  C01337923   4.126  -0.050  12.758
   558G11  H00137924   4.119  -0.137  12.822
   558G11  C00Q37925   4.172   0.310  12.555
   558G11  C00137926   4.205  -0.047  12.642
   558G11  C00037927   4.274  -0.158  12.601
   558G11  H00637928   4.271  -0.255  12.647
   558G11  C00W37929   4.302   0.198  12.382
   558G11  C01G37930   4.340  -0.160  12.483
   558G11  H00537931   4.388  -0.255  12.462
   558G11  C01C37932   4.461  -0.215  12.237
   558G11  H00237933   4.439  -0.311  12.282
   558G11  C01B37934   4.513  -0.209  12.098
   558G11  C01D37935   4.557  -0.312  12.008
   558G11  H00337936   4.560  -0.417  12.032
   558G11  C01E37937   4.594  -0.277  11.882
   558G11  H00437938   4.627  -0.350  11.809
   558G11  O00237939   4.593  -0.147  11.834
   558G11  C01A37940   4.515  -0.077  12.048
   558G11  C00V37941   4.376   0.215  12.258
   558G11  C01937942   4.551  -0.045  11.911
   558G11  C02E37943   4.538   0.243  11.393
   558G11  C0FX37944   4.555   0.222  11.260
   558G11  C0FW37945   4.518   0.319  11.169
   558G11  C0GB37946   4.606   0.100  11.215
   558G11  C0G337947   4.483   0.363  11.438
   558G11  C07H37948   4.438   0.459  11.346
   558G11  C0GC37949   4.630  -0.003  11.306
   558G11  C0G237950   4.618   0.084  11.084
   558G11  C0G137951   4.591   0.182  10.990
   558G11  C0FB37952   4.633   0.249  10.637
   558G11  C0F237953   4.493   0.479  10.715
   558G11  C0FY37954   4.537   0.301  11.032
   558G11  C0F537955   4.388   0.605  10.888
   558G11  C0FV37956   4.460   0.437  11.210
   558G11  C07937957   4.282   0.723  11.074
   558G11  C07A37958   4.180   0.847  11.247
   558G11  C06Y37959   4.126   0.887  11.519
   558G11  C07D37960   4.373   0.574  11.391
   558G11  C01F37961   4.462   0.386  11.575
   558G11  C00A37962   4.474   0.300  11.805
   558G11  C00X37963   4.415   0.349  12.070
   558G11  C00F37964   4.270   0.555  12.156
   558G11  C02937965   4.297   0.627  11.791
   558G11  C02537966   4.138   0.745  12.103
   558G11  C06U37967   4.159   0.821  11.744
   558G11  C02A37968   3.989   0.922  12.045
   558G11  C05Y37969   3.851   1.079  11.855
   558G11  C05Z37970   3.780   1.146  11.759
   558G11  C06037971   3.671   1.217  11.795
   558G11  C06237972   3.577   1.272  11.703
   558G11  C06T37973   4.100   0.907  11.653
   558G11  C06A37974   3.808   1.137  11.620
   558G11  C06Z37975   4.063   0.966  11.426
   558G11  C06Q37976   3.913   1.098  11.226
   558G11  C06837977   3.722   1.188  11.528
   558G11  C06737978   3.613   1.265  11.566
   558G11  C06337979   3.358   1.410  11.263
   558G11  C06C37980   3.273   1.449  11.155
   558G11  C06D37981   3.156   1.508  11.177
   558G11  C06E37982   3.047   1.516  11.089
   558G11  C07Q37983   3.070   1.477  10.962
   558G11  C07P37984   3.197   1.427  10.929
   558G11  C07T37985   3.221   1.400  10.800
   558G11  C07U37986   3.355   1.364  10.765
   558G11  C07V37987   3.376   1.329  10.630
   558G11  C08437988   3.278   1.339  10.532
   558G11  C08C37989   3.152   1.385  10.571
   558G11  C08B37990   3.052   1.390  10.471
   558G11  C08A37991   2.922   1.416  10.519
   558G11  C08937992   2.887   1.442  10.649
   558G11  C08837993   2.754   1.470  10.683
   558G11  C08737994   2.726   1.505  10.814
   558G11  C08637995   2.829   1.505  10.908
   558G11  C08X37996   2.650   1.465  10.592
   558G11  C08T37997   2.681   1.408  10.460
   558G11  C08D37998   2.989   1.448  10.740
   558G11  C08U37999   2.815   1.395  10.432
   558G11  C08V38000   2.842   1.342  10.313
   558G11  C0CY38001   2.967   1.314  10.260
   558G11  C0CX38002   2.976   1.249  10.136
   558G11  C0CW38003   3.100   1.212  10.099
   558G11  C0CV38004   3.207   1.240  10.180
   558G11  C0D438005   3.196   1.303  10.305
   558G11  C0CU38006   3.329   1.195  10.140
   558G11  C0CT38007   3.353   1.138  10.014
   558G11  C0CS38008   3.245   1.112   9.939
   558G11  C0D638009   3.430   1.208  10.231
   558G11  C0EC38010   3.419   1.265  10.363
   558G11  C07X38011   3.522   1.254  10.459
   558G11  C0DL38012   3.554   1.165  10.194
   558G11  C0DK38013   3.658   1.171  10.288
   558G11  C0DN38014   3.762   1.109  10.227
   558G11  C0D838015   3.592   1.106  10.071
   558G11  C08W38016   2.723   1.302  10.258
   558G11  C0CQ38017   2.729   1.240  10.125
   558G11  C09338018   3.074   1.340  10.345
   558G11  C09238019   3.300   1.305  10.402
   558G11  C08538020   3.122   1.421  10.703
   558G11  C07S38021   2.960   1.472  10.873
   558G11  C06F38022   2.918   1.561  11.123
   558G11  C07O38023   3.297   1.413  11.022
   558G11  C07N38024   3.421   1.363  10.992
   558G11  C05D38025   3.137   1.566  11.303
   558G11  C05C38026   3.013   1.617  11.333
   558G11  C05N38027   3.012   1.636  11.470
   558G11  C05M38028   3.259   1.462  11.708
   558G11  C05I38029   3.463   1.340  11.744
   558G11  C06138030   3.645   1.230  11.927
   558G11  C02Q38031   3.683   1.163  12.158
   558G11  C02O38032   3.567   1.157  12.420
   558G11  C03Q38033   3.400   1.353  12.161
   558G11  C03O38034   3.164   1.407  12.159
   558G11  C03L38035   2.921   1.358  12.418
   558G11  C02S38036   3.273   1.248  12.474
   558G11  C02T38037   3.163   1.167  12.712
   558G11  C03K38038   2.856   1.314  12.542
   558G11  C03I38039   3.104   1.130  12.830
   558G11  C03G38040   2.993   1.062  13.079
   558G11  H00D38041   2.952   1.029  13.173
   558G11  C03J38042   2.756   1.240  12.800
   558G11  C03W38043   2.481   1.250  12.866
   558G11  C04I38044   2.436   1.303  12.646
   558G11  C04K38045   2.268   1.377  12.433
   558G11  C04N38046   2.202   1.412  12.318
   558G11  C04X38047   2.195   1.500  12.094
   558G11  C05038048   2.185   1.553  11.849
   558G11  C05W38049   2.463   1.610  11.874
   558G11  C05S38050   2.338   1.628  11.409
   558G11  C05R38051   2.610   1.696  11.622
   558G11  C05O38052   2.884   1.667  11.525
   558G11  C05B38053   2.899   1.613  11.248
   558G11  C05A38054   2.545   1.645  11.292
   558G11  C07R38055   2.810   1.540  11.040
   558G11  C08N38056   2.593   1.523  10.858
   558G11  C08M38057   2.487   1.512  10.769
   558G11  C08L38058   2.351   1.529  10.811
   558G11  C09138059   2.414   1.589  11.286
   558G11  C09K38060   2.156   1.371  11.176
   558G11  H00M38061   2.179   1.299  11.253
   558G11  C08K38062   2.335   1.531  10.948
   558G11  C09J38063   2.059   1.372  11.066
   558G11  C09I38064   1.961   1.290  10.998
   558G11  C09L38065   1.874   1.188  11.048
   558G11  H00N38066   1.878   1.154  11.150
   558G11  C09Q38067   1.794   1.133  10.954
   558G11  H00O38068   1.719   1.062  10.984
   558G11  O00B38069   1.787   1.167  10.818
   558G11  C09G38070   1.869   1.271  10.773
   558G11  C09F38071   1.873   1.284  10.630
   558G11  O00A38072   1.777   1.202  10.572
   558G11  C09P38073   1.770   1.215  10.440
   558G11  H00P38074   1.672   1.231  10.395
   558G11  C09O38075   1.887   1.211  10.366
   558G11  C09D38076   1.988   1.305  10.418
   558G11  C09C38077   2.102   1.346  10.344
   558G11  C09N38078   2.170   1.299  10.229
   558G11  C09T38079   2.156   1.162  10.188
   558G11  C09S38080   2.024   1.099  10.185
   558G11  C0CP38081   2.035   1.006  10.082
   558G11  C0CN38082   2.163   0.996  10.026
   558G11  C0CO38083   2.184   0.901   9.928
   558G11  H01438084   2.278   0.887   9.877
   558G11  C0CZ38085   2.077   0.820   9.892
   558G11  H01538086   2.093   0.754   9.808
   558G11  C0D038087   1.946   0.829   9.951
   558G11  C0G538088   1.842   0.738   9.920
   558G11  H01F38089   1.858   0.667   9.841
   558G11  C0G438090   1.718   0.768   9.969
   558G11  H01G38091   1.639   0.706   9.929
   558G11  O00H38092   1.690   0.860  10.069
   558G11  C0D238093   1.797   0.945  10.099
   558G11  C09V38094   1.793   1.049  10.199
   558G11  H00Q38095   1.692   1.053  10.238
   558G11  C0D138096   1.922   0.929  10.045
   558G11  C09R38097   1.903   1.125  10.251
   558G11  C09H38098   1.955   1.337  10.860
   558G11  C09E38099   1.970   1.350  10.554
   558G11  C09B38100   2.181   1.449  10.388
   558G11  C08Z38101   2.249   1.518  10.716
   558G11  C08O38102   2.516   1.491  10.629
   558G11  C09A38103   2.294   1.475  10.312
   558G11  C08S38104   2.622   1.347  10.345
   558G11  C09938105   2.296   1.375  10.208
   558G11  C09U38106   2.240   1.106  10.083
   558G11  C0BO38107   2.548   1.053   9.717
   558G11  C0CL38108   2.614   1.205  10.049
   558G11  C0D338109   2.860   1.212  10.068
   558G11  C0D538110   3.117   1.143   9.979
   558G11  C0BR38111   2.777   1.038   9.756
   558G11  C0BQ38112   2.667   1.013   9.675
   558G11  C0BL38113   2.447   0.940   9.520
   558G11  C0AF38114   2.475   0.790   9.293
   558G11  C0BH38115   2.828   0.828   9.399
   558G11  C0BG38116   2.952   0.779   9.363
   558G11  C0BD38117   2.856   0.664   9.171
   558G11  C0AG38118   2.495   0.719   9.179
   558G11  C0AI38119   2.396   0.578   9.012
   558G11  C0AV38120   2.412   0.352   8.858
   558G11  C0BB38121   2.762   0.480   8.871
   558G11  O00C38122   2.571   0.195   8.763
   558G11  C0BC38123   2.865   0.406   8.838
   558G11  C0B938124   2.879   0.585   9.053
   558G11  O00E38125   3.230   0.524   9.062
   558G11  C0CA38126   3.342   0.564   9.117
   558G11  O00F38127   3.453   0.520   9.073
   558G11  C0BF38128   2.962   0.693   9.245
   558G11  C0C538129   3.327   0.660   9.225
   558G11  C0C438130   3.445   0.710   9.290
   558G11  H01138131   3.543   0.681   9.257
   558G11  C0C838132   3.064   0.819   9.436
   558G11  C0C238133   3.427   0.794   9.404
   558G11  C0C338134   3.539   0.837   9.487
   558G11  C0DY38135   3.678   0.821   9.463
   558G11  H01638136   3.726   0.773   9.378
   558G11  C0DX38137   3.746   0.892   9.568
   558G11  C0DW38138   3.869   0.967   9.560
   558G11  C0BY38139   3.161   0.940   9.622
   558G11  C0DB38140   3.519   0.911   9.600
   558G11  C0CC38141   3.264   1.043   9.818
   558G11  C0D738142   3.485   1.091   9.976
   558G11  C0DZ38143   3.641   0.933   9.663
   558G11  C0DM38144   3.728   1.068  10.094
   558G11  C0DQ38145   3.903   0.963   9.810
   558G11  C0DV38146   3.948   0.967   9.676
   558G11  C0E038147   3.970   0.954   9.452
   558G11  C0FO38148   4.226   0.732   9.473
   558G11  C0E338149   3.966   0.870   9.333
   558G11  H01738150   3.878   0.839   9.279
   558G11  C0GV38151   4.205   0.641   9.367
   558G11  C0ES38152   4.247   0.688   9.607
   558G11  C0GQ38153   4.241   0.324   9.532
   558G11  C0FJ38154   4.320   0.295   9.897
   558G11  C0ED38155   4.281   0.575   9.874
   558G11  C0ER38156   4.513   0.584  10.141
   558G11  C0EP38157   4.376   0.697  10.285
   558G11  C0E638158   4.197   0.794   9.961
   558G11  C0DE38159   4.038   0.968  10.156
   558G11  C0EA38160   4.235   0.829  10.456
   558G11  C0DF38161   4.009   1.055  10.260
   558G11  C08038162   4.024   1.056  10.620
   558G11  C0DO38163   3.878   1.098  10.299
   558G11  C0DJ38164   3.644   1.203  10.423
   558G11  C07K38165   3.824   1.182  10.752
   558G11  C07W38166   3.500   1.280  10.590
   558G11  C08338167   3.453   1.340  10.860
   558G11  C07J38168   3.800   1.209  10.888
   558G11  C06O38169   3.719   1.228  11.161
   558G11  C06M38170   3.507   1.331  11.093
   568G11  C07138171   9.485   5.153  15.045
   568G11  C07L38172   9.461   5.020  15.079
   568G11  C07M38173   9.333   4.976  15.112
   568G11  C07Y38174   9.305   4.840  15.139
   568G11  C08138175   9.407   4.747  15.141
   568G11  C08238176   9.372   4.613  15.159
   568G11  C0DI38177   9.454   4.495  15.177
   568G11  C0DH38178   9.592   4.470  15.166
   568G11  C0DG38179   9.621   4.331  15.199
   568G11  C0E938180   9.714   4.237  15.143
   568G11  C0E838181   9.640   4.108  15.167
   568G11  C0E738182   9.697   3.976  15.195
   568G11  C0EB38183   9.842   3.951  15.184
   568G11  C0EF38184   9.925   3.848  15.240
   568G11  C0EE38185   9.915   3.774  15.360
   568G11  C0FD38186  10.028   3.756  15.441
   568G11  C0FE38187  10.151   3.825  15.422
   568G11  H01B38188  10.161   3.885  15.333
   568G11  C0FF38189  10.267   3.812  15.505
   568G11  H01A38190  10.364   3.851  15.477
   568G11  C0FG38191  10.247   3.722  15.612
   568G11  H01838192  10.327   3.699  15.680
   568G11  C0FH38193  10.129   3.648  15.637
   568G11  C0FI38194  10.109   3.552  15.743
   568G11  H01938195  10.196   3.530  15.803
   568G11  O00K38196   9.995   3.478  15.768
   568G11  C0FL38197   9.889   3.509  15.685
   568G11  C0FK38198   9.896   3.604  15.574
   568G11  C0FM38199   9.782   3.620  15.488
   568G11  C0FN38200   9.671   3.542  15.509
   568G11  C0FP38201   9.658   3.466  15.624
   568G11  C0GO38202   9.545   3.389  15.664
   568G11  C0GN38203   9.514   3.345  15.793
   568G11  C0GR38204   9.617   3.353  15.888
   568G11  C0GS38205   9.596   3.312  16.023
   568G11  H01Q38206   9.676   3.309  16.096
   568G11  C0GT38207   9.465   3.272  16.061
   568G11  H01O38208   9.444   3.246  16.164
   568G11  C0GU38209   9.364   3.274  15.965
   568G11  H01P38210   9.270   3.238  16.003
   568G11  O00L38211   9.744   3.386  15.843
   568G11  C0GM38212   9.381   3.312  15.830
   568G11  C0GL38213   9.279   3.322  15.726
   568G11  H01R38214   9.174   3.314  15.749
   568G11  C0GK38215   9.313   3.348  15.592
   568G11  C0GP38216   9.238   3.394  15.478
   568G11  C0E238217   9.336   3.422  15.373
   568G11  C0E138218   9.280   3.508  15.271
   568G11  C0DU38219   9.327   3.637  15.242
   568G11  C0DT38220   9.458   3.696  15.256
   568G11  C0E438221   9.563   3.651  15.326
   568G11  C0E538222   9.663   3.745  15.324
   568G11  C0DS38223   9.486   3.833  15.222
   568G11  C0DR38224   9.376   3.913  15.190
   568G11  C0DD38225   9.374   4.052  15.180
   568G11  C0DC38226   9.230   4.088  15.179
   568G11  C0DP38227   9.146   3.979  15.185
   568G11  C0DA38228   8.995   3.970  15.186
   568G11  C0D938229   8.884   4.078  15.177
   568G11  C0CR38230   8.746   4.047  15.164
   568G11  C0C038231   8.706   3.915  15.153
   568G11  C0BZ38232   8.578   3.869  15.144
   568G11  C0C138233   8.539   3.735  15.129
   568G11  C0C738234   8.410   3.694  15.119
   568G11  C0C638235   8.371   3.563  15.084
   568G11  C0C938236   8.239   3.528  15.078
   568G11  C0B838237   8.200   3.397  15.044
   568G11  C0B738238   8.067   3.350  15.066
   568G11  C0B638239   8.002   3.223  15.038
   568G11  C0B538240   8.030   3.152  14.915
   568G11  H00Z38241   8.117   3.160  14.851
   568G11  C0B438242   7.906   3.077  14.894
   568G11  H01038243   7.879   3.019  14.807
   568G11  C0B338244   7.801   3.118  14.993
   568G11  C0AP38245   7.662   3.147  15.033
   568G11  C0AQ38246   7.673   3.246  15.134
   568G11  C0AR38247   7.569   3.343  15.150
   568G11  C0AS38248   7.618   3.462  15.192
   568G11  C0AT38249   7.749   3.503  15.192
   568G11  C0BA38250   7.849   3.414  15.164
   568G11  C0AU38251   7.782   3.639  15.189
   568G11  C0BE38252   7.914   3.679  15.164
   568G11  C0BI38253   7.946   3.812  15.164
   568G11  C0BJ38254   7.844   3.906  15.177
   568G11  C0BK38255   7.874   4.039  15.178
   568G11  C0BW38256   8.009   4.081  15.169
   568G11  C0BV38257   8.110   3.987  15.160
   568G11  C0BU38258   8.241   4.027  15.161
   568G11  C0BX38259   8.343   3.925  15.153
   568G11  C0BT38260   8.272   4.160  15.161
   568G11  C0CD38261   8.405   4.196  15.171
   568G11  C0CB38262   8.509   4.098  15.163
   568G11  C0CE38263   8.437   4.330  15.163
   568G11  C0CK38264   8.335   4.431  15.163
   568G11  C0BS38265   8.204   4.396  15.171
   568G11  C0CJ38266   8.102   4.491  15.165
   568G11  C0BP38267   7.969   4.447  15.176
   568G11  C0CI38268   7.865   4.541  15.168
   568G11  C0CH38269   7.737   4.501  15.212
   568G11  H01238270   7.664   4.575  15.238
   568G11  C0BN38271   7.703   4.362  15.212
   568G11  C0CG38272   7.573   4.326  15.216
   568G11  C0CF38273   7.469   4.421  15.215
   568G11  H01338274   7.486   4.528  15.209
   568G11  O00G38275   7.335   4.384  15.224
   568G11  C0AA38276   7.303   4.251  15.230
   568G11  C0A938277   7.164   4.219  15.247
   568G11  H00U38278   7.094   4.298  15.274
   568G11  C0A838279   7.129   4.083  15.241
   568G11  H00V38280   7.024   4.061  15.248
   568G11  C0A738281   7.220   3.982  15.206
   568G11  C0A638282   7.362   4.014  15.207
   568G11  C0A538283   7.471   3.923  15.198
   568G11  C0A438284   7.444   3.779  15.204
   568G11  C0A338285   7.340   3.681  15.191
   568G11  C0A238286   7.215   3.725  15.142
   568G11  C0A138287   7.105   3.634  15.116
   568G11  C0A038288   7.091   3.490  15.082
   568G11  C09Z38289   6.961   3.447  15.055
   568G11  C09Y38290   6.940   3.314  15.009
   568G11  H00Y38291   6.843   3.276  14.980
   568G11  C09X38292   7.049   3.226  14.990
   568G11  C09W38293   7.022   3.103  14.920
   568G11  H00R38294   6.921   3.074  14.895
   568G11  C0AX38295   7.124   3.014  14.895
   568G11  H00S38296   7.107   2.926  14.836
   568G11  C0AW38297   7.255   3.052  14.936
   568G11  H00T38298   7.334   2.983  14.910
   568G11  C0AN38299   7.289   3.176  14.998
   568G11  C0AO38300   7.423   3.215  15.018
   568G11  C0AM38301   7.179   3.264  15.021
   568G11  C0B238302   6.839   3.523  15.070
   568G11  O00D38303   6.722   3.480  15.046
   568G11  C0B138304   6.851   3.662  15.105
   568G11  H00W38305   6.758   3.714  15.121
   568G11  C0AL38306   7.202   3.397  15.075
   568G11  C0AK38307   7.338   3.428  15.115
   568G11  C0B038308   6.983   3.710  15.136
   568G11  C0AZ38309   7.015   3.842  15.177
   568G11  H00X38310   6.936   3.914  15.195
   568G11  C0AJ38311   7.387   3.551  15.176
   568G11  C0AH38312   7.556   3.699  15.223
   568G11  C0AE38313   7.607   3.960  15.198
   568G11  C0AD38314   7.640   4.095  15.198
   568G11  C0AY38315   7.158   3.856  15.181
   568G11  C0AB38316   7.404   4.151  15.212
   568G11  C0AC38317   7.537   4.190  15.204
   568G11  C0BM38318   7.807   4.264  15.203
   568G11  C0CM38319   7.893   4.668  15.122
   568G11  C09M38320   8.024   4.720  15.136
   568G11  C09838321   8.030   4.859  15.176
   568G11  C08R38322   8.140   4.956  15.179
   568G11  C08Q38323   8.101   5.083  15.224
   568G11  C08P38324   8.148   5.221  15.213
   568G11  C08Y38325   8.054   5.322  15.236
   568G11  C09738326   7.921   5.286  15.229
   568G11  C09638327   7.845   5.373  15.158
   568G11  C09038328   7.927   5.491  15.160
   568G11  C09538329   7.900   5.613  15.088
   568G11  C09438330   7.985   5.731  15.087
   568G11  C08J38331   8.127   5.746  15.119
   568G11  C08I38332   8.184   5.833  15.022
   568G11  C08H38333   8.318   5.805  14.995
   568G11  C08G38334   8.347   5.674  15.058
   568G11  C08F38335   8.464   5.588  15.078
   568G11  C08E38336   8.591   5.634  15.074
   568G11  C05938337   8.630   5.771  15.043
   568G11  C05838338   8.766   5.804  15.043
   568G11  C05738339   8.819   5.925  14.998
   568G11  C05638340   8.724   6.022  14.964
   568G11  C05538341   8.590   6.014  14.990
   568G11  C05438342   8.517   6.113  14.921
   568G11  C05338343   8.616   6.179  14.841
   568G11  C05238344   8.605   6.276  14.732
   568G11  C05138345   8.475   6.306  14.675
   568G11  C05U38346   8.349   6.234  14.707
   568G11  C05T38347   8.314   6.127  14.798
   568G11  C06K38348   8.171   6.138  14.815
   568G11  H00J38349   8.117   6.089  14.895
   568G11  C06L38350   8.118   6.231  14.730
   568G11  H00I38351   8.014   6.261  14.727
   568G11  C05V38352   8.228   6.289  14.660
   568G11  C06J38353   8.224   6.398  14.571
   568G11  H00K38354   8.129   6.445  14.547
   568G11  C05X38355   8.344   6.448  14.516
   568G11  C06I38356   8.353   6.549  14.420
   568G11  H00L38357   8.254   6.568  14.380
   568G11  C04Z38358   8.466   6.606  14.358
   568G11  C06H38359   8.461   6.715  14.260
   568G11  H00H38360   8.363   6.739  14.221
   568G11  C04Y38361   8.585   6.770  14.211
   568G11  C06G38362   8.583   6.878  14.110
   568G11  O00938363   8.479   6.920  14.061
   568G11  O00838364   8.709   6.931  14.077
   568G11  C04P38365   8.826   6.889  14.128
   568G11  C04J38366   8.958   6.939  14.083
   568G11  C04Q38367   8.988   7.047  13.996
   568G11  H00E38368   8.891   7.085  13.967
   568G11  C04M38369   9.118   7.079  13.950
   568G11  C04R38370   9.157   7.178  13.856
   568G11  H00F38371   9.083   7.238  13.805
   568G11  C04S38372   9.284   7.202  13.826
   568G11  H00G38373   9.310   7.267  13.743
   568G11  O00738374   9.388   7.140  13.876
   568G11  C03V38375   9.359   7.037  13.964
   568G11  C03U38376   9.461   6.961  14.006
   568G11  O00638377   9.582   6.999  13.962
   568G11  C03F38378   9.685   6.914  13.988
   568G11  C03E38379   9.674   6.797  14.066
   568G11  C03D38380   9.553   6.770  14.126
   568G11  C03C38381   9.536   6.658  14.217
   568G11  C03B38382   9.655   6.597  14.241
   568G11  C03A38383   9.653   6.500  14.345
   568G11  C03938384   9.533   6.461  14.413
   568G11  C03838385   9.575   6.351  14.502
   568G11  C03738386   9.711   6.348  14.479
   568G11  C03638387   9.790   6.276  14.566
   568G11  C02R38388   9.926   6.243  14.557
   568G11  C03538389   9.942   6.134  14.648
   568G11  C03R38390   9.822   6.107  14.711
   568G11  C03S38391   9.789   5.971  14.746
   568G11  C04938392   9.656   5.952  14.778
   568G11  C04838393   9.563   6.058  14.748
   568G11  C03P38394   9.595   6.175  14.669
   568G11  C04738395   9.433   6.021  14.791
   568G11  C04638396   9.326   6.104  14.790
   568G11  C04538397   9.300   6.224  14.722
   568G11  C03T38398   9.377   6.287  14.629
   568G11  C04438399   9.300   6.393  14.572
   568G11  C04338400   9.183   6.399  14.646
   568G11  C04238401   9.077   6.454  14.575
   568G11  C04138402   9.152   6.522  14.463
   568G11  C04038403   9.098   6.618  14.375
   568G11  C03Z38404   9.171   6.704  14.286
   568G11  C04H38405   9.063   6.780  14.231
   568G11  C04G38406   8.939   6.749  14.283
   568G11  C03N38407   9.305   6.723  14.241
   568G11  C03Y38408   9.319   6.828  14.150
   568G11  C03X38409   9.208   6.898  14.091
   568G11  C04F38410   8.955   6.642  14.364
   568G11  C04E38411   8.834   6.588  14.428
   568G11  C04O38412   8.710   6.629  14.371
   568G11  C04D38413   8.829   6.495  14.534
   568G11  C04V38414   8.707   6.442  14.577
   568G11  C04W38415   8.583   6.470  14.519
   568G11  C04C38416   8.937   6.434  14.605
   568G11  C04L38417   8.864   6.345  14.697
   568G11  C04U38418   8.933   6.261  14.786
   568G11  C05Q38419   8.874   6.163  14.860
   568G11  C05P38420   8.971   6.071  14.898
   568G11  C04T38421   9.097   6.106  14.857
   568G11  C04B38422   9.068   6.224  14.789
   568G11  C03M38423   9.295   6.489  14.464
   568G11  C04A38424   9.175   6.288  14.728
   568G11  C05H38425   9.222   6.040  14.857
   568G11  C05G38426   9.264   5.915  14.904
   568G11  C05F38427   9.190   5.837  14.982
   568G11  C05E38428   9.220   5.699  15.002
   568G11  C05L38429   9.333   5.611  14.981
   568G11  C05K38430   9.457   5.659  14.928
   568G11  C05J38431   9.491   5.789  14.874
   568G11  C06638432   9.555   5.559  14.924
   568G11  C06538433   9.529   5.422  14.967
   568G11  C06438434   9.404   5.382  15.013
   568G11  C06N38435   9.633   5.324  14.961
   568G11  C06938436   9.760   5.360  14.914
   568G11  C06P38437   9.859   5.262  14.900
   568G11  C06R38438   9.983   5.288  14.841
   568G11  C06B38439  10.013   5.416  14.799
   568G11  C06S38440  10.135   5.447  14.740
   568G11  C02G38441  10.164   5.577  14.704
   568G11  C02F38442  10.276   5.604  14.627
   568G11  C02738443  10.366   5.502  14.608
   568G11  C02638444  10.474   5.517  14.524
   568G11  C00E38445  10.566   5.416  14.497
   568G11  C00D38446  10.679   5.451  14.424
   568G11  C00C38447  10.758   5.345  14.394
   568G11  C00B38448  10.740   5.218  14.429
   568G11  C01538449  10.628   5.190  14.505
   568G11  C07F38450  10.601   5.058  14.547
   568G11  C07E38451  10.490   5.034  14.632
   568G11  C06W38452  10.404   5.137  14.665
   568G11  C06V38453  10.432   5.266  14.622
   568G11  C06X38454  10.287   5.111  14.731
   568G11  C07B38455  10.254   4.981  14.764
   568G11  C07C38456  10.347   4.874  14.741
   568G11  C0FU38457  10.316   4.744  14.776
   568G11  C0F738458  10.405   4.642  14.743
   568G11  C0F638459  10.364   4.512  14.767
   568G11  C0F838460  10.441   4.408  14.725
   568G11  C0F938461  10.415   4.282  14.765
   568G11  C0FA38462  10.502   4.177  14.734
   568G11  C0FZ38463  10.620   4.210  14.668
   568G11  C0G038464  10.711   4.110  14.641
   568G11  C0GD38465  10.690   3.975  14.673
   568G11  C0FC38466  10.573   3.946  14.746
   568G11  C0GH38467  10.554   3.813  14.791
   568G11  C0EY38468  10.442   3.785  14.873
   568G11  C0EX38469  10.413   3.656  14.916
   568G11  C0EW38470  10.300   3.631  14.993
   568G11  C0FR38471  10.267   3.498  15.034
   568G11  H01D38472  10.180   3.479  15.096
   568G11  C0FS38473  10.350   3.393  15.000
   568G11  H01C38474  10.319   3.293  15.023
   568G11  C0GJ38475  10.467   3.421  14.931
   568G11  H01N38476  10.514   3.326  14.911
   568G11  C0EV38477  10.215   3.740  15.027
   568G11  C0FT38478  10.113   3.725  15.126
   568G11  H01E38479  10.112   3.643  15.196
   568G11  C0EU38480  10.243   3.868  14.978
   568G11  C0ET38481  10.145   3.967  14.989
   568G11  C0EI38482  10.159   4.093  14.946
   568G11  C0F138483  10.278   4.124  14.873
   568G11  C0F038484  10.367   4.018  14.845
   568G11  C0EH38485  10.059   4.191  14.979
   568G11  C0EG38486   9.936   4.161  15.050
   568G11  C0EJ38487  10.088   4.323  14.942
   568G11  C0F338488  10.211   4.354  14.874
   568G11  C0EK38489  10.001   4.427  14.975
   568G11  C0EL38490   9.874   4.401  15.049
   568G11  C0EM38491   9.806   4.530  15.078
   568G11  C0EN38492   9.857   4.656  15.042
   568G11  C07I38493   9.768   4.757  15.061
   568G11  C07438494   9.782   4.882  15.011
   568G11  C07338495   9.683   4.969  15.028
   568G11  C07238496   9.707   5.097  14.991
   568G11  C07538497   9.902   4.908  14.957
   568G11  C07638498   9.998   4.804  14.930
   568G11  C07838499  10.109   4.822  14.862
   568G11  C07G38500   9.928   5.031  14.914
   568G11  C07038501  10.050   5.056  14.858
   568G11  C07Z38502   9.647   4.703  15.107
   568G11  C07738503   9.974   4.674  14.973
   568G11  C0EO38504  10.044   4.558  14.938
   568G11  C0F438505  10.164   4.583  14.876
   568G11  C0EQ38506  10.038   3.943  15.073
   568G11  C0FQ38507  10.497   3.546  14.882
   568G11  C0GI38508  10.605   3.576  14.795
   568G11  H01L38509  10.672   3.496  14.768
   568G11  C0EZ38510  10.354   3.888  14.901
   568G11  C0GG38511  10.636   3.702  14.749
   568G11  C0GF38512  10.751   3.733  14.667
   568G11  H01M38513  10.812   3.653  14.627
   568G11  C0GE38514  10.778   3.864  14.626
   568G11  H01K38515  10.866   3.884  14.567
   568G11  O00J38516  10.824   4.127  14.567
   568G11  C0GA38517  10.842   4.252  14.514
   568G11  C0G938518  10.952   4.268  14.435
   568G11  H01H38519  11.011   4.196  14.380
   568G11  C0G838520  10.986   4.399  14.394
   568G11  C0G738521  11.099   4.427  14.312
   568G11  H01I38522  11.149   4.341  14.270
   568G11  O00I38523  11.123   4.542  14.251
   568G11  C0G638524  11.044   4.648  14.290
   568G11  H01J38525  11.070   4.733  14.228
   568G11  C02D38526  10.933   4.642  14.383
   568G11  C02C38527  10.857   4.749  14.423
   568G11  C01738528  10.890   4.884  14.388
   568G11  C01638529  10.805   4.989  14.431
   568G11  O00138530  10.998   4.913  14.302
   568G11  C01838531  11.019   5.033  14.250
   568G11  C00938532  10.925   5.142  14.282
   568G11  C00838533  10.935   5.278  14.233
   568G11  C00738534  11.012   5.351  14.134
   568G11  C00638535  11.131   5.301  14.079
   568G11  C00538536  11.224   5.380  14.002
   568G11  C00438537  11.203   5.519  13.952
   568G11  C00338538  11.096   5.621  13.970
   568G11  C00238539  11.098   5.741  13.889
   568G11  C00P38540  10.998   5.840  13.909
   568G11  C00O38541  10.983   5.945  13.821
   568G11  C00N38542  10.884   6.047  13.839
   568G11  C01038543  10.860   6.140  13.742
   568G11  C01138544  10.753   6.230  13.745
   568G11  C01Q38545  10.725   6.322  13.637
   568G11  C01U38546  10.806   6.326  13.522
   568G11  C01238547  10.925   6.237  13.524
   568G11  H00038548  10.996   6.230  13.443
   568G11  C01V38549  10.766   6.414  13.421
   568G11  H00738550  10.824   6.395  13.332
   568G11  O00538551  10.670   6.506  13.425
   568G11  C01W38552  10.589   6.495  13.536
   568G11  C03138553  10.475   6.579  13.538
   568G11  C03238554  10.386   6.575  13.649
   568G11  H00A38555  10.291   6.625  13.637
   568G11  C03338556  10.416   6.485  13.753
   568G11  H00B38557  10.343   6.467  13.832
   568G11  C01O38558  10.533   6.409  13.759
   568G11  C01N38559  10.555   6.323  13.865
   568G11  C01M38560  10.466   6.316  13.991
   568G11  C01L38561  10.339   6.370  14.064
   568G11  C01K38562  10.316   6.281  14.171
   568G11  C01Y38563  10.217   6.282  14.268
   568G11  C02I38564  10.118   6.370  14.254
   568G11  C02N38565  10.009   6.360  14.345
   568G11  C02M38566   9.896   6.441  14.319
   568G11  C02L38567   9.898   6.544  14.219
   568G11  C02K38568  10.017   6.567  14.148
   568G11  C02U38569  10.027   6.683  14.071
   568G11  C02V38570   9.915   6.759  14.043
   568G11  C03H38571   9.918   6.875  13.962
   568G11  H00C38572   9.996   6.928  13.910
   568G11  C02W38573  10.146   6.714  14.016
   568G11  C02X38574  10.248   6.618  14.024
   568G11  C02Y38575  10.357   6.690  13.963
   568G11  H00838576  10.459   6.665  13.939
   568G11  C02Z38577  10.313   6.826  13.926
   568G11  O00438578  10.372   6.905  13.854
   568G11  O00338579  10.183   6.835  13.967
   568G11  C02J38580  10.125   6.471  14.154
   568G11  C01Z38581  10.225   6.180  14.361
   568G11  C02038582  10.327   6.084  14.359
   568G11  C01I38583  10.429   6.094  14.269
   568G11  C01H38584  10.525   6.000  14.255
   568G11  C00K38585  10.622   6.016  14.158
   568G11  C01S38586  10.609   6.118  14.063
   568G11  C01438587  10.695   6.132  13.954
   568G11  C00J38588  10.720   5.924  14.140
   568G11  C00I38589  10.721   5.812  14.223
   568G11  C00H38590  10.615   5.787  14.313
   568G11  C00G38591  10.608   5.674  14.388
   568G11  C00S38592  10.810   5.711  14.197
   568G11  C00T38593  10.800   5.601  14.277
   568G11  C00U38594  10.885   5.496  14.245
   568G11  C00R38595  10.903   5.717  14.091
   568G11  C00L38596  10.811   5.937  14.035
   568G11  C02838597  10.520   5.882  14.327
   568G11  C02338598  10.416   5.865  14.417
   568G11  C02438599  10.402   5.746  14.484
   568G11  C02138600  10.322   5.968  14.435
   568G11  C02238601  10.222   5.951  14.526
   568G11  C02H38602  10.207   5.834  14.599
   568G11  C03038603  10.096   5.805  14.673
   568G11  C03438604  10.006   5.903  14.696
   568G11  C02P38605  10.122   6.050  14.535
   568G11  C02B38606  10.125   6.164  14.453
   568G11  C01J38607  10.417   6.194  14.180
   568G11  C01X38608  10.243   6.482  14.066
   568G11  C01T38609  10.500   6.205  14.074
   568G11  H00938610  10.457   6.642  13.452
   568G11  C01P38611  10.620   6.413  13.648
   568G11  C01R38612  10.666   6.229  13.854
   568G11  C00Z38613  10.947   6.149  13.630
   568G11  O00038614  11.062   6.072  13.627
   568G11  C00M38615  10.800   6.043  13.945
   568G11  C00Y38616  11.075   5.969  13.719
   568G11  C01338617  11.186   5.886  13.714
   568G11  H00138618  11.260   5.906  13.639
   568G11  C00Q38619  10.908   5.834  14.016
   568G11  C00138620  11.198   5.767  13.795
   568G11  C00038621  11.305   5.681  13.796
   568G11  H00638622  11.387   5.704  13.729
   568G11  C00W38623  10.996   5.611  14.068
   568G11  C01G38624  11.310   5.562  13.867
   568G11  H00538625  11.397   5.499  13.850
   568G11  C01C38626  11.340   5.295  13.988
   568G11  H00238627  11.434   5.328  13.947
   568G11  C01B38628  11.313   5.167  14.044
   568G11  C01D38629  11.404   5.054  14.057
   568G11  H00338630  11.502   5.057  14.012
   568G11  C01E38631  11.353   4.946  14.119
   568G11  H00438632  11.412   4.856  14.121
   568G11  O00238633  11.230   4.936  14.176
   568G11  C01A38634  11.187   5.167  14.101
   568G11  C00V38635  10.969   5.489  14.134
   568G11  C01938636  11.145   5.049  14.175
   568G11  C02E38637  10.747   4.724  14.505
   568G11  C0FX38638  10.715   4.594  14.548
   568G11  C0FW38639  10.601   4.570  14.628
   568G11  C0GB38640  10.796   4.490  14.508
   568G11  C0G338641  10.665   4.832  14.550
   568G11  C07H38642  10.553   4.801  14.627
   568G11  C0GC38643  10.904   4.510  14.428
   568G11  C0G238644  10.761   4.363  14.552
   568G11  C0G138645  10.644   4.336  14.623
   568G11  C0FB38646  10.482   4.048  14.774
   568G11  C0F238647  10.302   4.256  14.841
   568G11  C0FY38648  10.564   4.439  14.659
   568G11  C0F538649  10.248   4.483  14.838
   568G11  C0FV38650  10.521   4.673  14.671
   568G11  C07938651  10.195   4.718  14.838
   568G11  C07A38652  10.136   4.951  14.826
   568G11  C06Y38653  10.196   5.211  14.760
   568G11  C07D38654  10.465   4.904  14.671
   568G11  C01F38655  10.695   4.959  14.516
   568G11  C00A38656  10.825   5.116  14.383
   568G11  C00X38657  10.865   5.372  14.305
   568G11  C00F38658  10.696   5.573  14.362
   568G11  C02938659  10.542   5.286  14.540
   568G11  C02538660  10.498   5.646  14.471
   568G11  C06U38661  10.343   5.370  14.650
   568G11  C02A38662  10.295   5.729  14.570
   568G11  C05Y38663  10.070   5.679  14.722
   568G11  C05Z38664   9.942   5.646  14.777
   568G11  C06038665   9.850   5.748  14.796
   568G11  C06238666   9.718   5.720  14.832
   568G11  C06T38667  10.228   5.341  14.720
   568G11  C06A38668   9.913   5.515  14.811
   568G11  C06Z38669  10.078   5.187  14.819
   568G11  C06Q38670   9.832   5.131  14.935
   568G11  C06838671   9.785   5.486  14.869
   568G11  C06738672   9.686   5.592  14.881
   568G11  C06338673   9.305   5.473  15.016
   568G11  C06C38674   9.178   5.429  15.057
   568G11  C06D38675   9.074   5.515  15.070
   568G11  C06E38676   8.938   5.481  15.086
   568G11  C07Q38677   8.907   5.347  15.109
   568G11  C07P38678   9.016   5.256  15.112
   568G11  C07T38679   8.986   5.125  15.137
   568G11  C07U38680   9.096   5.029  15.128
   568G11  C07V38681   9.066   4.898  15.147
   568G11  C08438682   8.936   4.854  15.167
   568G11  C08C38683   8.832   4.945  15.166
   568G11  C08B38684   8.704   4.906  15.178
   568G11  C08A38685   8.605   4.998  15.170
   568G11  C08938686   8.624   5.134  15.157
   568G11  C08838687   8.513   5.223  15.150
   568G11  C08738688   8.538   5.360  15.129
   568G11  C08638689   8.670   5.403  15.120
   568G11  C08X38690   8.385   5.174  15.156
   568G11  C08T38691   8.367   5.028  15.139
   568G11  C08D38692   8.751   5.176  15.153
   568G11  C08U38693   8.475   4.951  15.162
   568G11  C08V38694   8.447   4.817  15.163
   568G11  C0CY38695   8.544   4.725  15.167
   568G11  C0CX38696   8.500   4.597  15.171
   568G11  C0CW38697   8.599   4.498  15.171
   568G11  C0CV38698   8.736   4.546  15.171
   568G11  C0D438699   8.768   4.679  15.170
   568G11  C0CU38700   8.831   4.450  15.164
   568G11  C0CT38701   8.806   4.315  15.171
   568G11  C0CS38702   8.677   4.273  15.164
   568G11  C0D638703   8.958   4.497  15.166
   568G11  C0EC38704   8.997   4.628  15.168
   568G11  C07X38705   9.133   4.668  15.159
   568G11  C0DL38706   9.064   4.410  15.180
   568G11  C0DK38707   9.196   4.447  15.186
   568G11  C0DN38708   9.270   4.339  15.209
   568G11  C0D838709   9.047   4.270  15.194
   568G11  C08W38710   8.311   4.795  15.144
   568G11  C0CQ38711   8.270   4.655  15.155
   568G11  C09338712   8.673   4.769  15.171
   568G11  C09238713   8.899   4.720  15.170
   568G11  C08538714   8.858   5.083  15.152
   568G11  C07S38715   8.775   5.311  15.133
   568G11  C06F38716   8.835   5.571  15.082
   568G11  C07O38717   9.150   5.297  15.086
   568G11  C07N38718   9.253   5.205  15.080
   568G11  C05D38719   9.098   5.646  15.051
   568G11  C05C38720   8.994   5.733  15.045
   568G11  C05N38721   9.046   5.850  14.995
   568G11  C05M38722   9.397   5.896  14.862
   568G11  C05I38723   9.621   5.825  14.829
   568G11  C06138724   9.887   5.872  14.752
   568G11  C02Q38725  10.027   6.027  14.624
   568G11  C02O38726  10.019   6.257  14.446
   568G11  C03Q38727   9.729   6.195  14.666
   568G11  C03O38728   9.511   6.264  14.598
   568G11  C03L38729   9.410   6.534  14.386
   568G11  C02S38730   9.766   6.425  14.384
   568G11  C02T38731   9.783   6.623  14.194
   568G11  C03K38732   9.412   6.639  14.281
   568G11  C03I38733   9.793   6.722  14.098
   568G11  C03G38734   9.808   6.949  13.932
   568G11  H00D38735   9.814   7.038  13.871
   568G11  C03J38736   9.443   6.854  14.099
   568G11  C03W38737   9.225   7.005  14.001
   568G11  C04I38738   9.073   6.880  14.132
   568G11  C04K38739   8.822   6.787  14.225
   568G11  C04N38740   8.707   6.732  14.273
   568G11  C04X38741   8.586   6.563  14.412
   568G11  C05038742   8.467   6.409  14.572
   568G11  C05W38743   8.723   6.344  14.678
   568G11  C05S38744   8.400   6.047  14.882
   568G11  C05R38745   8.744   6.131  14.885
   568G11  C05O38746   8.949   5.950  14.968
   568G11  C05B38747   8.856   5.700  15.060
   568G11  C05A38748   8.541   5.879  15.002
   568G11  C07R38749   8.697   5.537  15.093
   568G11  C08N38750   8.430   5.452  15.117
   568G11  C08M38751   8.299   5.402  15.150
   568G11  C08L38752   8.193   5.495  15.152
   568G11  C09138753   8.410   5.905  14.955
   568G11  C09K38754   8.076   5.850  14.919
   568G11  H00M38755   8.088   5.862  14.813
   568G11  C08K38756   8.222   5.633  15.114
   568G11  C09J38757   7.951   5.804  14.975
   568G11  C09I38758   7.831   5.751  14.917
   568G11  C09L38759   7.740   5.800  14.819
   568G11  H00N38760   7.764   5.893  14.771
   568G11  C09Q38761   7.632   5.725  14.797
   568G11  H00O38762   7.562   5.766  14.725
   568G11  O00B38763   7.601   5.604  14.856
   568G11  C09G38764   7.696   5.552  14.949
   568G11  C09F38765   7.659   5.421  14.990
   568G11  O00A38766   7.539   5.388  14.932
   568G11  C09P38767   7.491   5.264  14.972
   568G11  H00P38768   7.393   5.248  15.015
   568G11  C09O38769   7.577   5.154  15.006
   568G11  C09D38770   7.693   5.197  15.079
   568G11  C09C38771   7.783   5.110  15.152
   568G11  C09N38772   7.802   4.965  15.159
   568G11  C09T38773   7.746   4.877  15.062
   568G11  C09S38774   7.624   4.902  14.995
   568G11  C0CP38775   7.586   4.780  14.946
   568G11  C0CN38776   7.679   4.679  14.981
   568G11  C0CO38777   7.658   4.552  14.929
   568G11  H01438778   7.724   4.468  14.945
   568G11  C0CZ38779   7.534   4.531  14.862
   568G11  H01538780   7.533   4.429  14.827
   568G11  C0D038781   7.437   4.632  14.830
   568G11  C0G538782   7.310   4.615  14.768
   568G11  H01F38783   7.282   4.512  14.751
   568G11  C0G438784   7.230   4.721  14.747
   568G11  H01G38785   7.132   4.701  14.706
   568G11  O00H38786   7.257   4.853  14.786
   568G11  C0D238787   7.376   4.875  14.851
   568G11  C09V38788   7.420   5.000  14.903
   568G11  H00Q38789   7.355   5.080  14.871
   568G11  C0D138790   7.464   4.763  14.875
   568G11  C09R38791   7.547   5.020  14.971
   568G11  C09H38792   7.805   5.628  14.985
   568G11  C09E38793   7.728   5.334  15.078
   568G11  C09B38794   7.886   5.156  15.223
   568G11  C08Z38795   8.058   5.447  15.182
   568G11  C08O38796   8.278   5.263  15.168
   568G11  C09A38797   7.975   5.057  15.273
   568G11  C08S38798   8.264   4.929  15.132
   568G11  C09938799   7.923   4.937  15.229
   568G11  C09U38800   7.782   4.739  15.063
   568G11  C0BO38801   7.937   4.310  15.182
   568G11  C0CL38802   8.132   4.622  15.142
   568G11  C0D338803   8.368   4.560  15.159
   568G11  C0D538804   8.571   4.366  15.157
   568G11  C0BR38805   8.174   4.259  15.167
   568G11  C0BQ38806   8.041   4.218  15.172
   568G11  C0BL38807   7.775   4.131  15.194
   568G11  C0AF38808   7.711   3.871  15.195
   568G11  C0BH38809   8.077   3.853  15.150
   568G11  C0BG38810   8.178   3.757  15.128
   568G11  C0BD38811   8.013   3.578  15.131
   568G11  C0AG38812   7.688   3.740  15.205
   568G11  C0AI38813   7.523   3.561  15.210
   568G11  C0AV38814   7.443   3.332  15.092
   568G11  C0BB38815   7.807   3.279  15.151
   568G11  O00C38816   7.533   3.133  14.979
   568G11  C0BC38817   7.878   3.181  15.090
   568G11  C0B938818   7.975   3.445  15.124
   568G11  O00E38819   8.293   3.302  15.020
   568G11  C0CA38820   8.425   3.323  15.036
   568G11  O00F38821   8.495   3.226  15.022
   568G11  C0BF38822   8.141   3.622  15.113
   568G11  C0C538823   8.467   3.457  15.072
   568G11  C0C438824   8.608   3.492  15.089
   568G11  H01138825   8.691   3.426  15.068
   568G11  C0C838826   8.312   3.791  15.132
   568G11  C0C238827   8.631   3.632  15.123
   568G11  C0C338828   8.764   3.680  15.147
   568G11  C0DY38829   8.881   3.607  15.168
   568G11  H01638830   8.900   3.501  15.157
   568G11  C0DX38831   8.982   3.703  15.194
   568G11  C0DW38832   9.101   3.655  15.254
   568G11  C0BY38833   8.480   3.963  15.156
   568G11  C0DB38834   8.796   3.815  15.162
   568G11  C0CC38835   8.645   4.141  15.167
   568G11  C0D738836   8.911   4.218  15.184
   568G11  C0DZ38837   8.935   3.836  15.189
   568G11  C0DM38838   9.184   4.219  15.195
   568G11  C0DQ38839   9.240   3.868  15.203
   568G11  C0DV38840   9.219   3.727  15.232
   568G11  C0E038841   9.136   3.524  15.298
   568G11  C0FO38842   9.459   3.444  15.439
   568G11  C0E338843   9.117   3.463  15.434
   568G11  H01738844   9.048   3.503  15.507
   568G11  C0GV38845   9.447   3.390  15.569
   568G11  C0ES38846   9.562   3.547  15.420
   568G11  C0GQ38847   9.760   3.457  15.721
   568G11  C0FJ38848  10.021   3.672  15.552
   568G11  C0ED38849   9.791   3.717  15.385
   568G11  C0ER38850  10.026   3.829  15.151
   568G11  C0EP38851   9.937   4.030  15.105
   568G11  C0E638852   9.622   3.862  15.245
   568G11  C0DE38853   9.497   4.137  15.197
   568G11  C0EA38854   9.844   4.268  15.087
   568G11  C0DF38855   9.502   4.277  15.227
   568G11  C08038856   9.682   4.567  15.134
   568G11  C0DO38857   9.399   4.372  15.206
   568G11  C0DJ38858   9.236   4.581  15.166
   568G11  C07K38859   9.537   4.791  15.110
   568G11  C07W38860   9.168   4.803  15.153
   568G11  C08338861   9.227   5.070  15.111
   568G11  C07J38862   9.559   4.926  15.068
   568G11  C06O38863   9.614   5.197  15.005
   568G11  C06M38864   9.380   5.248  15.050
   578G11  C07138865   4.454   1.308  12.575
   578G11  C07L38866   4.358   1.387  12.635
   578G11  C07M38867   4.279   1.474  12.560
   578G11  C07Y38868   4.176   1.544  12.620
   578G11  C08138869   4.137   1.522  12.754
   578G11  C08238870   4.017   1.588  12.799
   578G11  C0DI38871   3.944   1.573  12.924
   578G11  C0DH38872   3.984   1.515  13.045
   578G11  C0DG38873   3.871   1.519  13.141
   578G11  C0E938874   3.874   1.548  13.283
   578G11  C0E838875   3.769   1.653  13.307
   578G11  C0E738876   3.741   1.730  13.434
   578G11  C0EB38877   3.791   1.675  13.564
   578G11  C0EF38878   3.774   1.727  13.695
   578G11  C0EE38879   3.790   1.864  13.731
   578G11  C0FD38880   3.879   1.897  13.839
   578G11  C0FE38881   3.966   1.811  13.911
   578G11  H01B38882   3.969   1.704  13.893
   578G11  C0FF38883   4.038   1.852  14.022
   578G11  H01A38884   4.090   1.779  14.082
   578G11  C0FG38885   4.043   1.990  14.047
   578G11  H01838886   4.101   2.030  14.129
   578G11  C0FH38887   3.973   2.083  13.970
   578G11  C0FI38888   3.991   2.227  13.983
   578G11  H01938889   4.052   2.271  14.060
   578G11  O00K38890   3.937   2.317  13.901
   578G11  C0FL38891   3.851   2.267  13.810
   578G11  C0FK38892   3.817   2.132  13.795
   578G11  C0FM38893   3.729   2.092  13.696
   578G11  C0FN38894   3.645   2.190  13.644
   578G11  C0FP38895   3.682   2.324  13.656
   578G11  C0GO38896   3.627   2.423  13.576
   578G11  C0GN38897   3.683   2.541  13.545
   578G11  C0GR38898   3.802   2.577  13.619
   578G11  C0GS38899   3.875   2.693  13.596
   578G11  H01Q38900   3.965   2.714  13.651
   578G11  C0GT38901   3.828   2.777  13.494
   578G11  H01O38902   3.888   2.866  13.481
   578G11  C0GU38903   3.713   2.739  13.421
   578G11  H01P38904   3.688   2.805  13.340
   578G11  O00L38905   3.847   2.495  13.718
   578G11  C0GM38906   3.634   2.625  13.444
   578G11  C0GL38907   3.520   2.585  13.380
   578G11  H01R38908   3.474   2.642  13.300
   578G11  C0GK38909   3.452   2.470  13.412
   578G11  C0GP38910   3.346   2.392  13.356
   578G11  C0E238911   3.331   2.275  13.441
   578G11  C0E138912   3.275   2.167  13.369
   578G11  C0DU38913   3.361   2.052  13.326
   578G11  C0DT38914   3.463   1.989  13.400
   578G11  C0E438915   3.528   2.029  13.522
   578G11  C0E538916   3.634   1.943  13.543
   578G11  C0DS38917   3.545   1.887  13.344
   578G11  C0DR38918   3.530   1.864  13.202
   578G11  C0DD38919   3.610   1.788  13.122
   578G11  C0DC38920   3.570   1.826  12.987
   578G11  C0DP38921   3.460   1.917  12.983
   578G11  C0DA38922   3.387   1.984  12.870
   578G11  C0D938923   3.423   1.982  12.721
   578G11  C0CR38924   3.333   2.041  12.620
   578G11  C0C038925   3.212   2.095  12.653
   578G11  C0BZ38926   3.121   2.158  12.570
   578G11  C0C138927   3.000   2.214  12.621
   578G11  C0C738928   2.906   2.272  12.528
   578G11  C0C638929   2.782   2.324  12.576
   578G11  C0C938930   2.688   2.364  12.484
   578G11  C0B838931   2.569   2.416  12.536
   578G11  C0B738932   2.462   2.437  12.443
   578G11  C0B638933   2.326   2.501  12.444
   578G11  C0B538934   2.302   2.623  12.510
   578G11  H00Z38935   2.363   2.679  12.580
   578G11  C0B438936   2.178   2.673  12.459
   578G11  H01038937   2.145   2.775  12.471
   578G11  C0B338938   2.124   2.578  12.361
   578G11  C0AP38939   2.096   2.596  12.214
   578G11  C0AQ38940   2.167   2.498  12.144
   578G11  C0AR38941   2.199   2.513  12.009
   578G11  C0AS38942   2.316   2.451  11.973
   578G11  C0AT38943   2.415   2.406  12.067
   578G11  C0BA38944   2.388   2.412  12.199
   578G11  C0AU38945   2.543   2.381  12.027
   578G11  C0BE38946   2.639   2.353  12.120
   578G11  C0BI38947   2.772   2.327  12.076
   578G11  C0BJ38948   2.803   2.336  11.939
   578G11  C0BK38949   2.928   2.318  11.898
   578G11  C0BW38950   3.030   2.275  11.986
   578G11  C0BV38951   3.000   2.265  12.121
   578G11  C0BU38952   3.089   2.224  12.210
   578G11  C0BX38953   3.057   2.215  12.350
   578G11  C0BT38954   3.217   2.187  12.168
   578G11  C0CD38955   3.310   2.139  12.261
   578G11  C0CB38956   3.272   2.116  12.397
   578G11  C0CE38957   3.434   2.098  12.213
   578G11  C0CK38958   3.469   2.116  12.079
   578G11  C0BS38959   3.379   2.164  11.984
   578G11  C0CJ38960   3.422   2.185  11.849
   578G11  C0BP38961   3.328   2.245  11.764
   578G11  C0CI38962   3.368   2.290  11.638
   578G11  C0CH38963   3.265   2.344  11.557
   578G11  H01238964   3.304   2.374  11.461
   578G11  C0BN38965   3.126   2.357  11.594
   578G11  C0CG38966   3.040   2.424  11.509
   578G11  C0CF38967   3.081   2.465  11.374
   578G11  H01338968   3.175   2.439  11.328
   578G11  O00G38969   2.989   2.529  11.291
   578G11  C0AA38970   2.868   2.564  11.342
   578G11  C0A938971   2.793   2.635  11.255
   578G11  H00U38972   2.840   2.675  11.167
   578G11  C0A838973   2.661   2.663  11.288
   578G11  H00V38974   2.603   2.712  11.211
   578G11  C0A738975   2.600   2.619  11.412
   578G11  C0A638976   2.680   2.536  11.502
   578G11  C0A538977   2.640   2.481  11.630
   578G11  C0A438978   2.505   2.493  11.679
   578G11  C0A338979   2.383   2.569  11.645
   578G11  C0A238980   2.377   2.671  11.550
   578G11  C0A138981   2.251   2.738  11.517
   578G11  C0A038982   2.124   2.766  11.581
   578G11  C09Z38983   2.031   2.843  11.510
   578G11  C09Y38984   1.912   2.893  11.572
   578G11  H00Y38985   1.837   2.947  11.516
   578G11  C09X38986   1.900   2.872  11.710
   578G11  C09W38987   1.787   2.940  11.770
   578G11  H00R38988   1.733   3.012  11.710
   578G11  C0AX38989   1.770   2.925  11.904
   578G11  H00S38990   1.689   2.978  11.952
   578G11  C0AW38991   1.857   2.847  11.976
   578G11  H00T38992   1.826   2.822  12.076
   578G11  C0AN38993   1.963   2.774  11.921
   578G11  C0AO38994   2.045   2.692  11.998
   578G11  C0AM38995   1.982   2.785  11.783
   578G11  C0B238996   2.049   2.885  11.370
   578G11  O00D38997   1.963   2.949  11.310
   578G11  C0B138998   2.164   2.850  11.304
   578G11  H00W38999   2.189   2.883  11.204
   578G11  C0AL39000   2.098   2.728  11.716
   578G11  C0AK39001   2.172   2.638  11.797
   578G11  C0B039002   2.263   2.778  11.378
   578G11  C0AZ39003   2.389   2.743  11.329
   578G11  H00X39004   2.416   2.778  11.230
   578G11  C0AJ39005   2.290   2.566  11.752
   578G11  C0AH39006   2.484   2.437  11.802
   578G11  C0AE39007   2.735   2.425  11.716
   578G11  C0AD39008   2.870   2.409  11.678
   578G11  C0AY39009   2.465   2.675  11.436
   578G11  C0AB39010   2.817   2.517  11.467
   578G11  C0AC39011   2.907   2.448  11.549
   578G11  C0BM39012   3.096   2.319  11.725
   578G11  C0CM39013   3.506   2.279  11.596
   578G11  C09M39014   3.578   2.170  11.661
   578G11  C09839015   3.669   2.096  11.576
   578G11  C08R39016   3.768   1.996  11.604
   578G11  C08Q39017   3.821   1.934  11.494
   578G11  C08P39018   3.939   1.863  11.456
   578G11  C08Y39019   3.974   1.880  11.319
   578G11  C09739020   3.921   1.978  11.244
   578G11  C09639021   4.013   2.037  11.158
   578G11  C09039022   4.109   1.936  11.144
   578G11  C09539023   4.223   1.935  11.059
   578G11  C09439024   4.318   1.831  11.062
   578G11  C08J39025   4.333   1.713  11.147
   578G11  C08I39026   4.468   1.684  11.148
   578G11  C08H39027   4.496   1.613  11.270
   578G11  C08G39028   4.392   1.642  11.366
   578G11  C08F39029   4.372   1.630  11.514
   578G11  C08E39030   4.465   1.564  11.600
   578G11  C05939031   4.594   1.517  11.558
   578G11  C05839032   4.678   1.451  11.650
   578G11  C05739033   4.790   1.373  11.618
   578G11  C05639034   4.830   1.371  11.481
   578G11  C05539035   4.778   1.458  11.390
   578G11  C05439036   4.803   1.401  11.264
   578G11  C05339037   4.875   1.278  11.281
   578G11  C05239038   4.897   1.166  11.190
   578G11  C05139039   4.854   1.181  11.051
   578G11  C05U39040   4.752   1.271  10.997
   578G11  C05T39041   4.659   1.367  11.060
   578G11  C06K39042   4.591   1.431  10.954
   578G11  H00J39043   4.526   1.515  10.973
   578G11  C06L39044   4.627   1.373  10.829
   578G11  H00I39045   4.583   1.388  10.731
   578G11  C05V39046   4.730   1.275  10.857
   578G11  C06J39047   4.801   1.192  10.765
   578G11  H00K39048   4.780   1.196  10.659
   578G11  C05X39049   4.900   1.101  10.814
   578G11  C06I39050   4.972   1.007  10.732
   578G11  H00L39051   4.947   1.019  10.628
   578G11  C04Z39052   5.050   0.898  10.780
   578G11  C06H39053   5.120   0.808  10.692
   578G11  H00H39054   5.132   0.833  10.588
   578G11  C04Y39055   5.185   0.688  10.745
   578G11  C06G39056   5.262   0.600  10.654
   578G11  O00939057   5.272   0.605  10.530
   578G11  O00839058   5.324   0.490  10.721
   578G11  C04P39059   5.301   0.458  10.854
   578G11  C04J39060   5.354   0.341  10.919
   578G11  C04Q39061   5.427   0.233  10.865
   578G11  H00E39062   5.461   0.231  10.763
   578G11  C04M39063   5.464   0.107  10.933
   578G11  C04R39064   5.532  -0.004  10.884
   578G11  H00F39065   5.562  -0.004  10.780
   578G11  C04S39066   5.573  -0.105  10.966
   578G11  H00G39067   5.640  -0.175  10.918
   578G11  O00739068   5.533  -0.117  11.091
   578G11  C03V39069   5.474  -0.006  11.145
   578G11  C03U39070   5.442  -0.012  11.281
   578G11  O00639071   5.468  -0.136  11.342
   578G11  C03F39072   5.428  -0.153  11.469
   578G11  C03E39073   5.370  -0.048  11.545
   578G11  C03D39074   5.350   0.076  11.486
   578G11  C03C39075   5.294   0.180  11.556
   578G11  C03B39076   5.274   0.157  11.691
   578G11  C03A39077   5.241   0.268  11.770
   578G11  C03939078   5.218   0.399  11.710
   578G11  C03839079   5.174   0.476  11.832
   578G11  C03739080   5.180   0.379  11.934
   578G11  C03639081   5.149   0.418  12.061
   578G11  C02R39082   5.156   0.346  12.179
   578G11  C03539083   5.126   0.446  12.273
   578G11  C03R39084   5.081   0.564  12.217
   578G11  C03S39085   4.997   0.653  12.276
   578G11  C04939086   4.976   0.764  12.198
   578G11  C04839087   5.015   0.762  12.062
   578G11  C03P39088   5.076   0.644  11.994
   578G11  C04739089   4.984   0.880  11.992
   578G11  C04639090   5.017   0.903  11.862
   578G11  C04539091   5.078   0.828  11.765
   578G11  C03T39092   5.122   0.695  11.762
   578G11  C04439093   5.155   0.668  11.627
   578G11  C04339094   5.155   0.791  11.555
   578G11  C04239095   5.119   0.765  11.422
   578G11  C04139096   5.162   0.617  11.407
   578G11  C04039097   5.172   0.544  11.285
   578G11  C03Z39098   5.236   0.415  11.270
   578G11  C04H39099   5.257   0.418  11.130
   578G11  C04G39100   5.210   0.528  11.068
   578G11  C03N39101   5.287   0.308  11.350
   578G11  C03Y39102   5.349   0.204  11.280
   578G11  C03X39103   5.374   0.212  11.143
   578G11  C04F39104   5.153   0.611  11.155
   578G11  C04E39105   5.103   0.737  11.105
   578G11  C04O39106   5.106   0.757  10.964
   578G11  C04D39107   5.053   0.843  11.184
   578G11  C04V39108   5.004   0.960  11.130
   578G11  C04W39109   4.993   0.979  10.992
   578G11  C04C39110   5.045   0.856  11.327
   578G11  C04L39111   4.997   0.991  11.352
   578G11  C04U39112   5.021   1.065  11.467
   578G11  C05Q39113   4.950   1.180  11.505
   578G11  C05P39114   4.923   1.182  11.641
   578G11  C04T39115   4.978   1.076  11.698
   578G11  C04B39116   5.036   1.005  11.595
   578G11  C03M39117   5.186   0.558  11.533
   578G11  C04A39118   5.087   0.882  11.634
   578G11  C05H39119   4.967   1.028  11.829
   578G11  C05G39120   4.904   1.079  11.945
   578G11  C05F39121   4.862   1.212  11.958
   578G11  C05E39122   4.772   1.253  12.061
   578G11  C05L39123   4.721   1.198  12.184
   578G11  C05K39124   4.784   1.087  12.249
   578G11  C05J39125   4.864   0.987  12.189
   578G11  C06639126   4.739   1.063  12.386
   578G11  C06539127   4.650   1.149  12.447
   578G11  C06439128   4.589   1.253  12.378
   578G11  C06N39129   4.607   1.123  12.582
   578G11  C06939130   4.660   1.017  12.654
   578G11  C06P39131   4.620   0.991  12.787
   578G11  C06R39132   4.657   0.880  12.851
   578G11  C06B39133   4.741   0.786  12.793
   578G11  C06S39134   4.774   0.669  12.859
   578G11  C02G39135   4.850   0.574  12.792
   578G11  C02F39136   4.867   0.449  12.845
   578G11  C02739137   4.803   0.412  12.960
   578G11  C02639138   4.814   0.283  13.007
   578G11  C00E39139   4.750   0.251  13.129
   578G11  C00D39140   4.744   0.118  13.166
   578G11  C00C39141   4.659   0.083  13.272
   578G11  C00B39142   4.574   0.167  13.332
   578G11  C01539143   4.585   0.301  13.301
   578G11  C07F39144   4.510   0.395  13.373
   578G11  C07E39145   4.511   0.524  13.329
   578G11  C06W39146   4.580   0.564  13.215
   578G11  C06V39147   4.659   0.471  13.150
   578G11  C06X39148   4.568   0.691  13.163
   578G11  C07B39149   4.495   0.785  13.235
   578G11  C07C39150   4.428   0.750  13.350
   578G11  C0FU39151   4.348   0.847  13.412
   578G11  C0F739152   4.269   0.809  13.515
   578G11  C0F639153   4.182   0.904  13.575
   578G11  C0F839154   4.103   0.868  13.685
   578G11  C0F939155   4.021   0.960  13.745
   578G11  C0FA39156   3.943   0.919  13.852
   578G11  C0FZ39157   3.949   0.789  13.890
   578G11  C0G039158   3.869   0.747  13.999
   578G11  C0GD39159   3.787   0.836  14.069
   578G11  C0FC39160   3.781   0.972  14.030
   578G11  C0GH39161   3.713   1.067  14.105
   578G11  C0EY39162   3.700   1.196  14.057
   578G11  C0EX39163   3.631   1.295  14.128
   578G11  C0EW39164   3.637   1.428  14.081
   578G11  C0FR39165   3.571   1.532  14.156
   578G11  H01D39166   3.580   1.637  14.133
   578G11  C0FS39167   3.497   1.501  14.276
   578G11  H01C39168   3.452   1.580  14.334
   578G11  C0GJ39169   3.507   1.372  14.322
   578G11  H01N39170   3.468   1.343  14.419
   578G11  C0EV39171   3.702   1.466  13.968
   578G11  C0FT39172   3.703   1.603  13.913
   578G11  H01E39173   3.656   1.688  13.959
   578G11  C0EU39174   3.766   1.364  13.895
   578G11  C0ET39175   3.827   1.388  13.776
   578G11  C0EI39176   3.898   1.298  13.699
   578G11  C0F139177   3.914   1.175  13.754
   578G11  C0F039178   3.843   1.142  13.868
   578G11  C0EH39179   3.956   1.335  13.573
   578G11  C0EG39180   3.915   1.450  13.503
   578G11  C0EJ39181   4.052   1.244  13.516
   578G11  C0F339182   4.076   1.120  13.577
   578G11  C0EK39183   4.109   1.279  13.391
   578G11  C0EL39184   4.065   1.393  13.314
   578G11  C0EM39185   4.141   1.406  13.193
   578G11  C0EN39186   4.260   1.339  13.167
   578G11  C07I39187   4.302   1.356  13.039
   578G11  C07439188   4.380   1.257  12.977
   578G11  C07339189   4.407   1.276  12.845
   578G11  C07239190   4.493   1.192  12.782
   578G11  C07539191   4.426   1.150  13.046
   578G11  C07639192   4.379   1.126  13.175
   578G11  C07839193   4.402   1.010  13.239
   578G11  C07G39194   4.502   1.062  12.983
   578G11  C07039195   4.532   0.943  13.052
   578G11  C07Z39196   4.212   1.441  12.969
   578G11  C07739197   4.288   1.215  13.235
   578G11  C0EO39198   4.211   1.187  13.348
   578G11  C0F439199   4.244   1.069  13.415
   578G11  C0EQ39200   3.809   1.508  13.715
   578G11  C0FQ39201   3.569   1.267  14.249
   578G11  C0GI39202   3.579   1.134  14.291
   578G11  H01L39203   3.532   1.120  14.387
   578G11  C0EZ39204   3.768   1.234  13.940
   578G11  C0GG39205   3.643   1.029  14.219
   578G11  C0GF39206   3.642   0.895  14.259
   578G11  H01M39207   3.588   0.850  14.341
   578G11  C0GE39208   3.711   0.801  14.182
   578G11  H01K39209   3.711   0.695  14.204
   578G11  O00J39210   3.857   0.614  14.039
   578G11  C0GA39211   3.928   0.527  13.969
   578G11  C0G939212   3.922   0.395  14.009
   578G11  H01H39213   3.866   0.366  14.096
   578G11  C0G839214   3.999   0.296  13.952
   578G11  C0G739215   4.008   0.165  14.002
   578G11  H01I39216   3.957   0.146  14.095
   578G11  O00I39217   4.082   0.065  13.943
   578G11  C0G639218   4.168   0.107  13.846
   578G11  H01J39219   4.241   0.032  13.817
   578G11  C02D39220   4.166   0.236  13.784
   578G11  C02C39221   4.251   0.272  13.681
   578G11  C01739222   4.315   0.174  13.602
   578G11  C01639223   4.412   0.217  13.500
   578G11  O00139224   4.282   0.040  13.609
   578G11  C01839225   4.345  -0.056  13.535
   578G11  C00939226   4.448  -0.020  13.446
   578G11  C00839227   4.531  -0.108  13.368
   578G11  C00739228   4.531  -0.247  13.341
   578G11  C00639229   4.422  -0.331  13.383
   578G11  C00539230   4.418  -0.471  13.346
   578G11  C00439231   4.500  -0.543  13.252
   578G11  C00339232   4.618  -0.511  13.166
   578G11  C00239233   4.678  -0.613  13.087
   578G11  C00P39234   4.774  -0.580  12.989
   578G11  C00O39235   4.824  -0.679  12.903
   578G11  C00N39236   4.906  -0.648  12.793
   578G11  C01039237   4.941  -0.742  12.698
   578G11  C01139238   4.995  -0.706  12.574
   578G11  C01Q39239   5.015  -0.807  12.478
   578G11  C01U39240   4.977  -0.938  12.499
   578G11  C01239241   4.911  -0.971  12.621
   578G11  H00039242   4.878  -1.073  12.640
   578G11  C01V39243   4.999  -1.025  12.391
   578G11  H00739244   4.988  -1.129  12.416
   578G11  O00539245   5.060  -0.995  12.272
   578G11  C01W39246   5.099  -0.869  12.258
   578G11  C03139247   5.166  -0.834  12.139
   578G11  C03239248   5.246  -0.721  12.141
   578G11  H00A39249   5.308  -0.689  12.058
   578G11  C03339250   5.230  -0.625  12.244
   578G11  H00B39251   5.286  -0.533  12.236
   578G11  C01O39252   5.131  -0.643  12.343
   578G11  C01N39253   5.093  -0.536  12.426
   578G11  C01M39254   5.120  -0.393  12.396
   578G11  C01L39255   5.156  -0.285  12.286
   578G11  C01K39256   5.155  -0.161  12.354
   578G11  C01Y39257   5.171  -0.033  12.308
   578G11  C02I39258   5.207  -0.025  12.174
   578G11  C02N39259   5.205   0.105  12.126
   578G11  C02M39260   5.226   0.123  11.985
   578G11  C02L39261   5.270   0.018  11.904
   578G11  C02K39262   5.276  -0.112  11.959
   578G11  C02U39263   5.314  -0.217  11.874
   578G11  C02V39264   5.359  -0.189  11.744
   578G11  C03H39265   5.427  -0.287  11.669
   578G11  H00C39266   5.457  -0.381  11.716
   578G11  C02W39267   5.281  -0.340  11.910
   578G11  C02X39268   5.217  -0.361  12.032
   578G11  C02Y39269   5.158  -0.486  12.015
   578G11  H00839270   5.085  -0.539  12.073
   578G11  C02Z39271   5.193  -0.538  11.878
   578G11  O00439272   5.161  -0.648  11.828
   578G11  O00339273   5.262  -0.440  11.818
   578G11  C02J39274   5.226  -0.137  12.095
   578G11  C01Z39275   5.137   0.067  12.397
   578G11  C02039276   5.086   0.043  12.526
   578G11  C01I39277   5.084  -0.083  12.576
   578G11  C01H39278   5.029  -0.123  12.694
   578G11  C00K39279   4.996  -0.251  12.719
   578G11  C01S39280   5.020  -0.346  12.625
   578G11  C01439281   4.995  -0.480  12.648
   578G11  C00J39282   4.928  -0.288  12.832
   578G11  C00I39283   4.901  -0.188  12.929
   578G11  C00H39284   4.919  -0.053  12.893
   578G11  C00G39285   4.872   0.052  12.971
   578G11  C00S39286   4.820  -0.220  13.038
   578G11  C00T39287   4.777  -0.113  13.116
   578G11  C00U39288   4.695  -0.147  13.218
   578G11  C00R39289   4.777  -0.355  13.055
   578G11  C00L39290   4.893  -0.417  12.859
   578G11  C02839291   4.984  -0.023  12.779
   578G11  C02339292   5.000   0.111  12.739
   578G11  C02439293   4.938   0.214  12.817
   578G11  C02139294   5.045   0.144  12.614
   578G11  C02239295   5.042   0.273  12.572
   578G11  C02H39296   4.983   0.375  12.651
   578G11  C03039297   4.973   0.503  12.603
   578G11  C03439298   5.011   0.520  12.473
   578G11  C02P39299   5.090   0.292  12.444
   578G11  C02B39300   5.135   0.193  12.354
   578G11  C01J39301   5.121  -0.181  12.489
   578G11  C01X39302   5.200  -0.275  12.143
   578G11  C01T39303   5.089  -0.311  12.507
   578G11  H00939304   5.169  -0.907  12.059
   578G11  C01P39305   5.081  -0.772  12.360
   578G11  C01R39306   5.029  -0.572  12.551
   578G11  C00Z39307   4.896  -0.876  12.718
   578G11  O00039308   4.840  -0.912  12.833
   578G11  C00M39309   4.931  -0.516  12.768
   578G11  C00Y39310   4.786  -0.814  12.912
   578G11  C01339311   4.685  -0.839  12.998
   578G11  H00139312   4.647  -0.940  12.994
   578G11  C00Q39313   4.818  -0.451  12.967
   578G11  C00139314   4.625  -0.743  13.085
   578G11  C00039315   4.514  -0.772  13.161
   578G11  H00639316   4.467  -0.868  13.147
   578G11  C00W39317   4.675  -0.386  13.155
   578G11  C01G39318   4.456  -0.680  13.243
   578G11  H00539319   4.373  -0.725  13.296
   578G11  C01C39320   4.312  -0.526  13.427
   578G11  H00239321   4.273  -0.627  13.428
   578G11  C01B39322   4.263  -0.423  13.511
   578G11  C01D39323   4.164  -0.434  13.613
   578G11  H00339324   4.118  -0.529  13.638
   578G11  C01E39325   4.152  -0.325  13.693
   578G11  H00439326   4.093  -0.320  13.783
   578G11  O00239327   4.215  -0.201  13.672
   578G11  C01A39328   4.328  -0.300  13.487
   578G11  C00V39329   4.627  -0.272  13.237
   578G11  C01939330   4.300  -0.186  13.562
   578G11  C02E39331   4.261   0.405  13.640
   578G11  C0FX39332   4.182   0.501  13.700
   578G11  C0FW39333   4.186   0.638  13.663
   578G11  C0GB39334   4.097   0.467  13.809
   578G11  C0G339335   4.345   0.449  13.540
   578G11  C07H39336   4.351   0.586  13.500
   578G11  C0GC39337   4.089   0.330  13.850
   578G11  C0G239338   4.020   0.565  13.867
   578G11  C0G139339   4.028   0.695  13.830
   578G11  C0FB39340   3.851   1.006  13.913
   578G11  C0F239341   4.002   1.086  13.690
   578G11  C0FY39342   4.106   0.734  13.726
   578G11  C0F539343   4.165   1.034  13.525
   578G11  C0FV39344   4.267   0.678  13.558
   578G11  C07939345   4.333   0.976  13.359
   578G11  C07A39346   4.484   0.916  13.178
   578G11  C06Y39347   4.632   0.728  13.042
   578G11  C07D39348   4.434   0.623  13.395
   578G11  C01F39349   4.425   0.356  13.471
   578G11  C00A39350   4.482   0.119  13.425
   578G11  C00X39351   4.638  -0.053  13.299
   578G11  C00F39352   4.804   0.022  13.089
   578G11  C02939353   4.669   0.344  13.198
   578G11  C02539354   4.882   0.185  12.935
   578G11  C06U39355   4.725   0.505  13.032
   578G11  C02A39356   4.933   0.348  12.777
   578G11  C05Y39357   4.904   0.604  12.666
   578G11  C05Z39358   4.863   0.719  12.599
   578G11  C06039359   4.902   0.736  12.469
   578G11  C06239360   4.869   0.853  12.398
   578G11  C06T39361   4.707   0.633  12.981
   578G11  C06A39362   4.783   0.814  12.663
   578G11  C06Z39363   4.609   0.854  12.985
   578G11  C06Q39364   4.547   1.085  12.855
   578G11  C06839365   4.744   0.927  12.593
   578G11  C06739366   4.785   0.949  12.458
   578G11  C06339367   4.620   1.275  12.247
   578G11  C06C39368   4.546   1.372  12.180
   578G11  C06D39369   4.572   1.404  12.049
   578G11  C06E39370   4.488   1.467  11.958
   578G11  C07Q39371   4.384   1.532  12.011
   578G11  C07P39372   4.360   1.517  12.150
   578G11  C07T39373   4.266   1.592  12.212
   578G11  C07U39374   4.236   1.574  12.344
   578G11  C07V39375   4.136   1.651  12.406
   578G11  C08439376   4.057   1.729  12.322
   578G11  C08C39377   4.080   1.742  12.188
   578G11  C08B39378   3.998   1.823  12.109
   578G11  C08A39379   4.024   1.829  11.972
   578G11  C08939380   4.120   1.752  11.907
   578G11  C08839381   4.131   1.751  11.765
   578G11  C08739382   4.239   1.686  11.707
   578G11  C08639383   4.327   1.614  11.791
   578G11  C08X39384   4.036   1.813  11.680
   578G11  C08T39385   3.937   1.904  11.754
   578G11  C08D39386   4.206   1.682  11.989
   578G11  C08U39387   3.937   1.898  11.892
   578G11  C08V39388   3.832   1.968  11.949
   578G11  C0CY39389   3.798   1.962  12.085
   578G11  C0CX39390   3.680   2.015  12.127
   578G11  C0CW39391   3.642   1.994  12.257
   578G11  C0CV39392   3.731   1.921  12.342
   578G11  C0D439393   3.855   1.866  12.292
   578G11  C0CU39394   3.697   1.906  12.474
   578G11  C0CT39395   3.572   1.953  12.525
   578G11  C0CS39396   3.490   2.013  12.433
   578G11  C0D639397   3.791   1.840  12.550
   578G11  C0EC39398   3.907   1.779  12.507
   578G11  C07X39399   3.990   1.701  12.587
   578G11  C0DL39400   3.758   1.823  12.683
   578G11  C0DK39401   3.838   1.743  12.760
   578G11  C0DN39402   3.763   1.722  12.868
   578G11  C0D839403   3.635   1.857  12.746
   578G11  C08W39404   3.751   2.022  11.846
   578G11  C0CQ39405   3.629   2.080  11.896
   578G11  C09339406   3.887   1.886  12.162
   578G11  C09239407   3.942   1.797  12.373
   578G11  C08539408   4.187   1.675  12.130
   578G11  C07S39409   4.302   1.611  11.931
   578G11  C06F39410   4.521   1.487  11.825
   578G11  C07O39411   4.441   1.437  12.234
   578G11  C07N39412   4.416   1.422  12.369
   578G11  C05D39413   4.696   1.364  12.003
   578G11  C05C39414   4.729   1.392  11.873
   578G11  C05N39415   4.826   1.297  11.841
   578G11  C05M39416   4.909   0.985  12.048
   578G11  C05I39417   4.909   0.873  12.265
   578G11  C06139418   4.971   0.638  12.409
   578G11  C02Q39419   5.076   0.419  12.398
   578G11  C02O39420   5.166   0.209  12.214
   578G11  C03Q39421   5.101   0.547  12.086
   578G11  C03O39422   5.115   0.607  11.863
   578G11  C03L39423   5.222   0.423  11.572
   578G11  C02S39424   5.212   0.250  11.914
   578G11  C02T39425   5.292   0.036  11.762
   578G11  C03K39426   5.265   0.304  11.491
   578G11  C03I39427   5.338  -0.068  11.684
   578G11  C03G39428   5.452  -0.276  11.530
   578G11  H00D39429   5.498  -0.357  11.474
   578G11  C03J39430   5.381   0.089  11.349
   578G11  C03W39431   5.437   0.110  11.070
   578G11  C04I39432   5.332   0.318  11.060
   578G11  C04K39433   5.230   0.548  10.929
   578G11  C04N39434   5.171   0.666  10.883
   578G11  C04X39435   5.047   0.877  10.913
   578G11  C05039436   4.913   1.089  10.954
   578G11  C05W39437   4.959   1.046  11.228
   578G11  C05S39438   4.679   1.427  11.193
   578G11  C05R39439   4.898   1.272  11.421
   578G11  C05O39440   4.850   1.283  11.704
   578G11  C05B39441   4.637   1.441  11.778
   578G11  C05A39442   4.646   1.496  11.421
   578G11  C07R39443   4.434   1.553  11.735
   578G11  C08N39444   4.256   1.689  11.569
   578G11  C08M39445   4.163   1.757  11.482
   578G11  C08L39446   4.184   1.776  11.341
   578G11  C09139447   4.591   1.509  11.290
   578G11  C09K39448   4.550   1.790  11.083
   578G11  H00M39449   4.656   1.809  11.090
   578G11  C08K39450   4.295   1.711  11.289
   578G11  C09J39451   4.448   1.886  11.037
   578G11  C09I39452   4.429   2.025  11.017
   578G11  C09L39453   4.529   2.121  10.979
   578G11  H00N39454   4.635   2.101  10.970
   578G11  C09Q39455   4.482   2.251  10.974
   578G11  H00O39456   4.551   2.329  10.945
   578G11  O00B39457   4.344   2.282  10.987
   578G11  C09G39458   4.249   2.194  11.031
   578G11  C09F39459   4.120   2.251  11.061
   578G11  O00A39460   4.119   2.387  11.036
   578G11  C09P39461   3.996   2.447  11.062
   578G11  H00P39462   3.973   2.530  10.997
   578G11  C09O39463   3.904   2.399  11.166
   578G11  C09D39464   3.900   2.258  11.188
   578G11  C09C39465   3.805   2.177  11.264
   578G11  C09N39466   3.704   2.213  11.358
   578G11  C09T39467   3.671   2.346  11.404
   578G11  C09S39468   3.714   2.462  11.328
   578G11  C0CP39469   3.620   2.554  11.381
   578G11  C0CN39470   3.541   2.510  11.485
   578G11  C0CO39471   3.441   2.593  11.526
   578G11  H01439472   3.363   2.552  11.589
   578G11  C0CZ39473   3.440   2.726  11.477
   578G11  H01539474   3.365   2.796  11.510
   578G11  C0D039475   3.540   2.771  11.380
   578G11  C0G539476   3.557   2.909  11.337
   578G11  H01F39477   3.495   2.985  11.383
   578G11  C0G439478   3.634   2.943  11.238
   578G11  H01G39479   3.626   3.045  11.204
   578G11  O00H39480   3.722   2.859  11.177
   578G11  C0D239481   3.725   2.726  11.230
   578G11  C09V39482   3.812   2.632  11.178
   578G11  H00Q39483   3.883   2.652  11.100
   578G11  C0D139484   3.634   2.683  11.325
   578G11  C09R39485   3.808   2.495  11.223
   578G11  C09H39486   4.291   2.061  11.034
   578G11  C09E39487   4.007   2.185  11.127
   578G11  C09B39488   3.818   2.041  11.284
   578G11  C08Z39489   4.100   1.864  11.269
   578G11  C08O39490   4.040   1.808  11.541
   578G11  C09A39491   3.735   1.987  11.387
   578G11  C08S39492   3.824   1.988  11.723
   578G11  C09939493   3.667   2.098  11.434
   578G11  C09U39494   3.566   2.370  11.502
   578G11  C0BO39495   3.196   2.269  11.809
   578G11  C0CL39496   3.547   2.146  11.801
   578G11  C0D339497   3.598   2.075  12.034
   578G11  C0D539498   3.523   2.036  12.305
   578G11  C0BR39499   3.252   2.200  12.031
   578G11  C0BQ39500   3.159   2.253  11.941
   578G11  C0BL39501   2.964   2.350  11.767
   578G11  C0AF39502   2.703   2.384  11.851
   578G11  C0BH39503   2.874   2.297  12.169
   578G11  C0BG39504   2.841   2.305  12.304
   578G11  C0BD39505   2.611   2.363  12.258
   578G11  C0AG39506   2.580   2.398  11.893
   578G11  C0AI39507   2.352   2.479  11.842
   578G11  C0AV39508   2.141   2.611  11.932
   578G11  C0BB39509   2.248   2.432  12.237
   578G11  O00C39510   2.029   2.692  12.136
   578G11  C0BC39511   2.216   2.473  12.367
   578G11  C0B939512   2.485   2.401  12.301
   578G11  O00E39513   2.547   2.444  12.669
   578G11  C0CA39514   2.629   2.393  12.764
   578G11  O00F39515   2.603   2.401  12.883
   578G11  C0BF39516   2.713   2.346  12.349
   578G11  C0C539517   2.748   2.326  12.714
   578G11  C0C439518   2.840   2.261  12.807
   578G11  H01139519   2.816   2.243  12.910
   578G11  C0C839520   2.937   2.268  12.392
   578G11  C0C239521   2.966   2.216  12.759
   578G11  C0C339522   3.079   2.168  12.838
   578G11  C0DY39523   3.076   2.172  12.980
   578G11  H01639524   3.005   2.210  13.052
   578G11  C0DX39525   3.194   2.096  13.018
   578G11  C0DW39526   3.268   2.130  13.133
   578G11  C0BY39527   3.152   2.164  12.439
   578G11  C0DB39528   3.187   2.101  12.793
   578G11  C0CC39529   3.363   2.050  12.482
   578G11  C0D739530   3.538   1.931  12.662
   578G11  C0DZ39531   3.266   2.062  12.895
   578G11  C0DM39532   3.635   1.793  12.870
   578G11  C0DQ39533   3.434   1.932  13.121
   578G11  C0DV39534   3.354   2.034  13.189
   578G11  C0E039535   3.233   2.222  13.239
   578G11  C0FO39536   3.436   2.268  13.533
   578G11  C0E339537   3.281   2.361  13.229
   578G11  H01739538   3.299   2.409  13.134
   578G11  C0GV39539   3.505   2.390  13.520
   578G11  C0ES39540   3.525   2.158  13.574
   578G11  C0GQ39541   3.792   2.365  13.730
   578G11  C0FJ39542   3.888   2.037  13.871
   578G11  C0ED39543   3.721   1.959  13.659
   578G11  C0ER39544   3.756   1.616  13.785
   578G11  C0EP39545   3.843   1.542  13.586
   578G11  C0E639546   3.645   1.845  13.440
   578G11  C0DE39547   3.710   1.689  13.178
   578G11  C0EA39548   3.956   1.471  13.370
   578G11  C0DF39549   3.771   1.593  13.084
   578G11  C08039550   4.116   1.476  13.071
   578G11  C0DO39551   3.815   1.627  12.956
   578G11  C0DJ39552   3.955   1.678  12.720
   578G11  C07K39553   4.224   1.439  12.824
   578G11  C07W39554   4.100   1.629  12.538
   578G11  C08339555   4.313   1.493  12.426
   578G11  C07J39556   4.333   1.373  12.769
   578G11  C06O39557   4.524   1.211  12.645
   578G11  C06M39558   4.484   1.326  12.442
   588G11  C07139559   0.506   3.779   6.093
   588G11  C07L39560   0.403   3.848   6.164
   588G11  C07M39561   0.290   3.782   6.215
   588G11  C07Y39562   0.184   3.851   6.274
   588G11  C08139563   0.184   3.991   6.287
   588G11  C08239564   0.075   4.052   6.351
   588G11  C0DI39565   0.042   4.194   6.361
   588G11  C0DH39566   0.110   4.318   6.322
   588G11  C0DG39567   0.023   4.429   6.328
   588G11  C0E939568   0.052   4.562   6.379
   588G11  C0E839569  -0.058   4.595   6.472
   588G11  C0E739570  -0.085   4.716   6.547
   588G11  C0EB39571  -0.007   4.839   6.524
   588G11  C0EF39572  -0.010   4.966   6.599
   588G11  C0EE39573  -0.028   4.979   6.735
   588G11  C0FD39574   0.067   5.060   6.816
   588G11  C0FE39575   0.189   5.110   6.766
   588G11  H01B39576   0.217   5.098   6.662
   588G11  C0FF39577   0.277   5.175   6.852
   588G11  H01A39578   0.366   5.221   6.810
   588G11  C0FG39579   0.251   5.183   6.988
   588G11  H01839580   0.327   5.238   7.042
   588G11  C0FH39581   0.133   5.142   7.042
   588G11  C0FI39582   0.095   5.144   7.189
   588G11  H01939583   0.166   5.194   7.253
   588G11  O00K39584  -0.016   5.086   7.242
   588G11  C0FL39585  -0.109   5.050   7.147
   588G11  C0FK39586  -0.076   5.027   7.008
   588G11  C0FM39587  -0.176   4.965   6.925
   588G11  C0FN39588  -0.304   4.944   6.977
   588G11  C0FP39589  -0.332   4.966   7.110
   588G11  C0GO39590  -0.452   4.928   7.167
   588G11  C0GN39591  -0.479   4.919   7.295
   588G11  C0GR39592  -0.386   4.980   7.385
   588G11  C0GS39593  -0.411   4.991   7.523
   588G11  H01Q39594  -0.345   5.035   7.596
   588G11  C0GT39595  -0.527   4.932   7.572
   588G11  H01O39596  -0.544   4.925   7.679
   588G11  C0GU39597  -0.609   4.861   7.489
   588G11  H01P39598  -0.696   4.814   7.533
   588G11  O00L39599  -0.260   5.024   7.338
   588G11  C0GM39600  -0.597   4.854   7.350
   588G11  C0GL39601  -0.684   4.789   7.261
   588G11  H01R39602  -0.758   4.719   7.297
   588G11  C0GK39603  -0.667   4.816   7.123
   588G11  C0GP39604  -0.725   4.767   7.005
   588G11  C0E239605  -0.662   4.833   6.889
   588G11  C0E139606  -0.669   4.748   6.775
   588G11  C0DU39607  -0.553   4.688   6.720
   588G11  C0DT39608  -0.425   4.732   6.701
   588G11  C0E439609  -0.361   4.830   6.772
   588G11  C0E539610  -0.229   4.832   6.734
   588G11  C0DS39611  -0.324   4.664   6.636
   588G11  C0DR39612  -0.354   4.532   6.606
   588G11  C0DD39613  -0.267   4.442   6.553
   588G11  C0DC39614  -0.355   4.316   6.551
   588G11  C0DP39615  -0.490   4.330   6.591
   588G11  C0DA39616  -0.590   4.228   6.603
   588G11  C0D939617  -0.597   4.078   6.572
   588G11  C0CR39618  -0.720   4.002   6.573
   588G11  C0C039619  -0.839   4.063   6.593
   588G11  C0BZ39620  -0.967   4.008   6.586
   588G11  C0C139621  -1.084   4.081   6.609
   588G11  C0C739622  -1.210   4.025   6.586
   588G11  C0C639623  -1.332   4.095   6.608
   588G11  C0C939624  -1.453   4.033   6.597
   588G11  C0B839625  -1.573   4.110   6.629
   588G11  C0B739626  -1.704   4.048   6.632
   588G11  C0B639627  -1.833   4.093   6.687
   588G11  C0B539628  -1.843   4.148   6.823
   588G11  H00Z39629  -1.771   4.201   6.882
   588G11  C0B439630  -1.970   4.100   6.873
   588G11  H01039631  -2.012   4.101   6.973
   588G11  C0B339632  -2.049   4.036   6.769
   588G11  C0AP39633  -2.132   3.915   6.753
   588G11  C0AQ39634  -2.058   3.837   6.655
   588G11  C0AR39635  -2.059   3.698   6.662
   588G11  C0AS39636  -1.945   3.642   6.612
   588G11  C0AT39637  -1.828   3.707   6.571
   588G11  C0BA39638  -1.825   3.845   6.575
   588G11  C0AU39639  -1.711   3.640   6.555
   588G11  C0BE39640  -1.592   3.708   6.537
   588G11  C0BI39641  -1.474   3.632   6.523
   588G11  C0BJ39642  -1.477   3.492   6.525
   588G11  C0BK39643  -1.366   3.419   6.507
   588G11  C0BW39644  -1.240   3.481   6.489
   588G11  C0BV39645  -1.230   3.622   6.503
   588G11  C0BU39646  -1.103   3.679   6.508
   588G11  C0BX39647  -1.098   3.818   6.531
   588G11  C0BT39648  -0.993   3.602   6.496
   588G11  C0CD39649  -0.866   3.665   6.499
   588G11  C0CB39650  -0.856   3.805   6.518
   588G11  C0CE39651  -0.753   3.594   6.486
   588G11  C0CK39652  -0.760   3.457   6.457
   588G11  C0BS39653  -0.884   3.392   6.452
   588G11  C0CJ39654  -0.893   3.256   6.422
   588G11  C0BP39655  -1.020   3.201   6.420
   588G11  C0CI39656  -1.037   3.071   6.378
   588G11  C0CH39657  -1.154   3.003   6.422
   588G11  H01239658  -1.157   2.900   6.390
   588G11  C0BN39659  -1.267   3.069   6.477
   588G11  C0CG39660  -1.385   3.000   6.521
   588G11  C0CF39661  -1.385   2.855   6.514
   588G11  H01339662  -1.301   2.788   6.505
   588G11  O00G39663  -1.496   2.787   6.558
   588G11  C0AA39664  -1.604   2.860   6.612
   588G11  C0A939665  -1.702   2.795   6.690
   588G11  H00U39666  -1.692   2.690   6.709
   588G11  C0A839667  -1.805   2.866   6.739
   588G11  H00V39668  -1.873   2.801   6.793
   588G11  C0A739669  -1.830   3.006   6.716
   588G11  C0A639670  -1.728   3.077   6.639
   588G11  C0A539671  -1.724   3.215   6.615
   588G11  C0A439672  -1.845   3.293   6.626
   588G11  C0A339673  -1.977   3.284   6.685
   588G11  C0A239674  -2.016   3.188   6.777
   588G11  C0A139675  -2.142   3.189   6.836
   588G11  C0A039676  -2.259   3.280   6.848
   588G11  C09Z39677  -2.374   3.224   6.913
   588G11  C09Y39678  -2.494   3.296   6.923
   588G11  H00Y39679  -2.582   3.243   6.956
   588G11  C09X39680  -2.494   3.435   6.885
   588G11  C09W39681  -2.610   3.513   6.904
   588G11  H00R39682  -2.700   3.462   6.936
   588G11  C0AX39683  -2.612   3.651   6.890
   588G11  H00S39684  -2.699   3.712   6.910
   588G11  C0AW39685  -2.495   3.714   6.857
   588G11  H00T39686  -2.492   3.822   6.847
   588G11  C0AN39687  -2.377   3.642   6.829
   588G11  C0AO39688  -2.260   3.709   6.792
   588G11  C0AM39689  -2.373   3.502   6.847
   588G11  C0B239690  -2.382   3.097   6.982
   588G11  O00D39691  -2.469   3.054   7.053
   588G11  C0B139692  -2.273   3.007   6.954
   588G11  H00W39693  -2.271   2.904   6.987
   588G11  C0AL39694  -2.257   3.425   6.816
   588G11  C0AK39695  -2.153   3.491   6.751
   588G11  C0B039696  -2.159   3.051   6.879
   588G11  C0AZ39697  -2.043   2.975   6.856
   588G11  H00X39698  -2.033   2.872   6.885
   588G11  C0AJ39699  -2.039   3.421   6.688
   588G11  C0AH39700  -1.828   3.432   6.599
   588G11  C0AE39701  -1.606   3.281   6.568
   588G11  C0AD39702  -1.488   3.214   6.547
   588G11  C0AY39703  -1.953   3.058   6.779
   588G11  C0AB39704  -1.615   3.005   6.598
   588G11  C0AC39705  -1.498   3.071   6.555
   588G11  C0BM39706  -1.257   3.207   6.481
   588G11  C0CM39707  -0.933   3.016   6.302
   588G11  C09M39708  -0.801   3.052   6.325
   588G11  C09839709  -0.702   2.948   6.300
   588G11  C08R39710  -0.561   2.947   6.299
   588G11  C08Q39711  -0.496   2.824   6.265
   588G11  C08P39712  -0.384   2.782   6.191
   588G11  C08Y39713  -0.401   2.658   6.128
   588G11  C09739714  -0.525   2.602   6.106
   588G11  C09639715  -0.541   2.538   5.988
   588G11  C09039716  -0.406   2.522   5.943
   588G11  C09539717  -0.365   2.474   5.819
   588G11  C09439718  -0.227   2.456   5.773
   588G11  C08J39719  -0.102   2.496   5.835
   588G11  C08I39720  -0.008   2.509   5.727
   588G11  C08H39721   0.089   2.608   5.768
   588G11  C08G39722   0.028   2.677   5.887
   588G11  C08F39723   0.065   2.791   5.976
   588G11  C08E39724   0.196   2.838   5.967
   588G11  C05939725   0.312   2.774   5.911
   588G11  C05839726   0.434   2.840   5.903
   588G11  C05739727   0.552   2.803   5.834
   588G11  C05639728   0.541   2.676   5.769
   588G11  C05539729   0.443   2.584   5.792
   588G11  C05439730   0.440   2.492   5.681
   588G11  C05339731   0.556   2.529   5.603
   588G11  C05239732   0.589   2.490   5.468
   588G11  C05139733   0.498   2.405   5.390
   588G11  C05U39734   0.356   2.373   5.416
   588G11  C05T39735   0.265   2.420   5.519
   588G11  C06K39736   0.158   2.330   5.520
   588G11  H00J39737   0.092   2.322   5.606
   588G11  C06L39738   0.156   2.254   5.398
   588G11  H00I39739   0.087   2.178   5.364
   588G11  C05V39740   0.287   2.276   5.343
   588G11  C06J39741   0.342   2.219   5.237
   588G11  H00K39742   0.285   2.152   5.175
   588G11  C05X39743   0.465   2.255   5.192
   588G11  C06I39744   0.524   2.197   5.080
   588G11  H00L39745   0.477   2.113   5.032
   588G11  C04Z39746   0.648   2.246   5.030
   588G11  C06H39747   0.696   2.193   4.908
   588G11  H00H39748   0.638   2.116   4.859
   588G11  C04Y39749   0.808   2.246   4.841
   588G11  C06G39750   0.847   2.207   4.706
   588G11  O00939751   0.795   2.115   4.647
   588G11  O00839752   0.948   2.277   4.648
   588G11  C04P39753   1.011   2.383   4.706
   588G11  C04J39754   1.114   2.464   4.642
   588G11  C04Q39755   1.163   2.456   4.506
   588G11  H00E39756   1.119   2.377   4.448
   588G11  C04M39757   1.258   2.544   4.450
   588G11  C04R39758   1.295   2.550   4.309
   588G11  H00F39759   1.252   2.478   4.241
   588G11  C04S39760   1.376   2.646   4.261
   588G11  H00G39761   1.404   2.647   4.157
   588G11  O00739762   1.433   2.741   4.349
   588G11  C03V39763   1.391   2.738   4.483
   588G11  C03U39764   1.436   2.842   4.559
   588G11  O00639765   1.514   2.933   4.490
   588G11  C03F39766   1.554   3.046   4.551
   588G11  C03E39767   1.527   3.063   4.695
   588G11  C03D39768   1.447   2.968   4.762
   588G11  C03C39769   1.406   2.989   4.894
   588G11  C03B39770   1.462   3.106   4.950
   588G11  C03A39771   1.418   3.142   5.081
   588G11  C03939772   1.332   3.058   5.158
   588G11  C03839773   1.304   3.134   5.282
   588G11  C03739774   1.392   3.246   5.263
   588G11  C03639775   1.404   3.334   5.364
   588G11  C02R39776   1.467   3.456   5.363
   588G11  C03539777   1.429   3.517   5.483
   588G11  C03R39778   1.344   3.437   5.558
   588G11  C03S39779   1.233   3.489   5.631
   588G11  C04939780   1.129   3.407   5.656
   588G11  C04839781   1.132   3.282   5.598
   588G11  C03P39782   1.220   3.237   5.491
   588G11  C04739783   1.029   3.197   5.645
   588G11  C04639784   1.006   3.066   5.615
   588G11  C04539785   1.064   2.980   5.516
   588G11  C03T39786   1.156   3.002   5.416
   588G11  C04439787   1.160   2.893   5.327
   588G11  C04339788   1.097   2.790   5.395
   588G11  C04239789   1.048   2.698   5.299
   588G11  C04139790   1.119   2.736   5.178
   588G11  C04039791   1.115   2.656   5.061
   588G11  C03Z39792   1.185   2.686   4.938
   588G11  C04H39793   1.141   2.586   4.849
   588G11  C04G39794   1.045   2.510   4.902
   588G11  C03N39795   1.275   2.788   4.889
   588G11  C03Y39796   1.318   2.761   4.752
   588G11  C03X39797   1.277   2.650   4.671
   588G11  C04F39798   1.020   2.552   5.033
   588G11  C04E39799   0.915   2.492   5.104
   588G11  C04O39800   0.844   2.395   5.035
   588G11  C04D39801   0.881   2.517   5.241
   588G11  C04V39802   0.749   2.477   5.284
   588G11  C04W39803   0.666   2.388   5.215
   588G11  C04C39804   0.933   2.606   5.333
   588G11  C04L39805   0.840   2.594   5.448
   588G11  C04U39806   0.846   2.679   5.562
   588G11  C05Q39807   0.737   2.705   5.656
   588G11  C05P39808   0.753   2.827   5.720
   588G11  C04T39809   0.861   2.895   5.670
   588G11  C04B39810   0.917   2.805   5.574
   588G11  C03M39811   1.191   2.859   5.191
   588G11  C04A39812   1.021   2.850   5.500
   588G11  C05H39813   0.904   3.024   5.694
   588G11  C05G39814   0.858   3.133   5.777
   588G11  C05F39815   0.747   3.124   5.855
   588G11  C05E39816   0.685   3.236   5.915
   588G11  C05L39817   0.699   3.382   5.913
   588G11  C05K39818   0.815   3.442   5.856
   588G11  C05J39819   0.924   3.384   5.789
   588G11  C06639820   0.819   3.588   5.875
   588G11  C06539821   0.715   3.652   5.951
   588G11  C06439822   0.604   3.578   6.010
   588G11  C06N39823   0.711   3.791   5.961
   588G11  C06939824   0.812   3.867   5.903
   588G11  C06P39825   0.811   4.005   5.911
   588G11  C06R39826   0.905   4.082   5.853
   588G11  C06B39827   1.014   4.020   5.786
   588G11  C06S39828   1.109   4.097   5.726
   588G11  C02G39829   1.220   4.036   5.667
   588G11  C02F39830   1.320   4.116   5.609
   588G11  C02739831   1.309   4.251   5.610
   588G11  C02639832   1.404   4.330   5.543
   588G11  C00E39833   1.388   4.466   5.534
   588G11  C00D39834   1.483   4.541   5.463
   588G11  C00C39835   1.468   4.678   5.469
   588G11  C00B39836   1.358   4.747   5.514
   588G11  C01539837   1.261   4.670   5.584
   588G11  C07F39838   1.144   4.725   5.627
   588G11  C07E39839   1.056   4.651   5.701
   588G11  C06W39840   1.074   4.514   5.711
   588G11  C06V39841   1.188   4.455   5.664
   588G11  C06X39842   0.975   4.438   5.771
   588G11  C07B39843   0.865   4.501   5.828
   588G11  C07C39844   0.849   4.636   5.820
   588G11  C0FU39845   0.739   4.698   5.880
   588G11  C0F739846   0.724   4.836   5.869
   588G11  C0F639847   0.617   4.893   5.937
   588G11  C0F839848   0.607   5.031   5.929
   588G11  C0F939849   0.505   5.096   6.005
   588G11  C0FA39850   0.489   5.233   5.995
   588G11  C0FZ39851   0.576   5.301   5.911
   588G11  C0G039852   0.559   5.444   5.895
   588G11  C0GD39853   0.455   5.513   5.964
   588G11  C0FC39854   0.370   5.437   6.048
   588G11  C0GH39855   0.266   5.505   6.120
   588G11  C0EY39856   0.184   5.430   6.209
   588G11  C0EX39857   0.071   5.486   6.268
   588G11  C0EW39858  -0.006   5.410   6.355
   588G11  C0FR39859  -0.119   5.463   6.420
   588G11  H01D39860  -0.194   5.407   6.475
   588G11  C0FS39861  -0.144   5.603   6.402
   588G11  H01C39862  -0.233   5.641   6.448
   588G11  C0GJ39863  -0.061   5.677   6.321
   588G11  H01N39864  -0.077   5.784   6.318
   588G11  C0EV39865   0.035   5.280   6.381
   588G11  C0FT39866  -0.015   5.205   6.495
   588G11  H01E39867  -0.091   5.239   6.564
   588G11  C0EU39868   0.129   5.217   6.300
   588G11  C0ET39869   0.152   5.083   6.307
   588G11  C0EI39870   0.238   5.006   6.234
   588G11  C0F139871   0.314   5.084   6.147
   588G11  C0F039872   0.297   5.224   6.137
   588G11  C0EH39873   0.240   4.863   6.242
   588G11  C0EG39874   0.151   4.789   6.325
   588G11  C0EJ39875   0.342   4.800   6.173
   588G11  C0F339876   0.427   4.877   6.089
   588G11  C0EK39877   0.353   4.661   6.171
   588G11  C0EL39878   0.255   4.583   6.245
   588G11  C0EM39879   0.292   4.441   6.246
   588G11  C0EN39880   0.397   4.398   6.171
   588G11  C07I39881   0.406   4.260   6.164
   588G11  C07439882   0.498   4.191   6.089
   588G11  C07339883   0.505   4.058   6.102
   588G11  C07239884   0.606   3.989   6.039
   588G11  C07539885   0.597   4.270   6.031
   588G11  C07639886   0.590   4.409   6.032
   588G11  C07839887   0.672   4.488   5.963
   588G11  C07G39888   0.698   4.205   5.973
   588G11  C07039889   0.792   4.284   5.911
   588G11  C07Z39890   0.307   4.203   6.234
   588G11  C07739891   0.488   4.473   6.101
   588G11  C0EO39892   0.462   4.607   6.102
   588G11  C0F439893   0.543   4.682   6.019
   588G11  C0EQ39894   0.081   5.012   6.405
   588G11  C0FQ39895   0.049   5.624   6.255
   588G11  C0GI39896   0.143   5.699   6.182
   588G11  H01L39897   0.126   5.805   6.178
   588G11  C0EZ39898   0.204   5.292   6.213
   588G11  C0GG39899   0.249   5.644   6.108
   588G11  C0GF39900   0.334   5.715   6.026
   588G11  H01M39901   0.328   5.821   6.007
   588G11  C0GE39902   0.437   5.651   5.958
   588G11  H01K39903   0.500   5.708   5.891
   588G11  O00J39904   0.636   5.514   5.803
   588G11  C0GA39905   0.744   5.455   5.744
   588G11  C0G939906   0.808   5.525   5.643
   588G11  H01H39907   0.769   5.624   5.620
   588G11  C0G839908   0.905   5.468   5.564
   588G11  C0G739909   0.978   5.533   5.461
   588G11  H01I39910   0.963   5.638   5.441
   588G11  O00I39911   1.082   5.470   5.391
   588G11  C0G639912   1.095   5.341   5.420
   588G11  H01J39913   1.152   5.300   5.337
   588G11  C02D39914   1.032   5.266   5.522
   588G11  C02C39915   1.068   5.133   5.550
   588G11  C01739916   1.180   5.069   5.495
   588G11  C01639917   1.214   4.933   5.527
   588G11  O00139918   1.277   5.145   5.431
   588G11  C01839919   1.370   5.079   5.352
   588G11  C00939920   1.419   4.954   5.392
   588G11  C00839921   1.529   4.882   5.336
   588G11  C00739922   1.623   4.896   5.228
   588G11  C00639923   1.605   4.996   5.128
   588G11  C00539924   1.689   5.017   5.012
   588G11  C00439925   1.789   4.931   4.954
   588G11  C00339926   1.817   4.789   4.981
   588G11  C00239927   1.908   4.724   4.894
   588G11  C00P39928   1.924   4.582   4.902
   588G11  C00O39929   1.983   4.510   4.798
   588G11  C00N39930   1.992   4.368   4.796
   588G11  C01039931   2.054   4.302   4.690
   588G11  C01139932   2.040   4.167   4.682
   588G11  C01Q39933   2.090   4.105   4.567
   588G11  C01U39934   2.142   4.176   4.459
   588G11  C01239935   2.166   4.318   4.477
   588G11  H00039936   2.221   4.369   4.399
   588G11  C01V39937   2.185   4.100   4.340
   588G11  H00739938   2.228   4.154   4.256
   588G11  O00539939   2.170   3.963   4.332
   588G11  C01W39940   2.136   3.899   4.448
   588G11  C03139941   2.138   3.756   4.445
   588G11  C03239942   2.085   3.676   4.545
   588G11  H00A39943   2.092   3.568   4.553
   588G11  C03339944   2.047   3.739   4.664
   588G11  H00B39945   2.010   3.676   4.744
   588G11  C01O39946   2.037   3.883   4.671
   588G11  C01N39947   1.980   3.949   4.778
   588G11  C01M39948   1.930   3.873   4.898
   588G11  C01L39949   1.846   3.757   4.927
   588G11  C01K39950   1.814   3.770   5.064
   588G11  C01Y39951   1.711   3.688   5.123
   588G11  C02I39952   1.670   3.568   5.062
   588G11  C02N39953   1.588   3.483   5.138
   588G11  C02M39954   1.544   3.362   5.075
   588G11  C02L39955   1.582   3.326   4.940
   588G11  C02K39956   1.656   3.426   4.866
   588G11  C02U39957   1.667   3.406   4.726
   588G11  C02V39958   1.628   3.283   4.672
   588G11  C03H39959   1.663   3.250   4.538
   588G11  H00C39960   1.725   3.318   4.481
   588G11  C02W39961   1.704   3.514   4.648
   588G11  C02X39962   1.759   3.624   4.717
   588G11  C02Y39963   1.758   3.723   4.617
   588G11  H00839964   1.793   3.825   4.615
   588G11  C02Z39965   1.715   3.669   4.487
   588G11  O00439966   1.718   3.721   4.377
   588G11  O00339967   1.672   3.541   4.516
   588G11  C02J39968   1.701   3.546   4.927
   588G11  C01Z39969   1.661   3.736   5.241
   588G11  C02039970   1.690   3.868   5.280
   588G11  C01I39971   1.786   3.944   5.218
   588G11  C01H39972   1.784   4.083   5.216
   588G11  C00K39973   1.852   4.158   5.123
   588G11  C01S39974   1.908   4.093   5.015
   588G11  C01439975   1.954   4.158   4.902
   588G11  C00J39976   1.836   4.293   5.118
   588G11  C00I39977   1.752   4.355   5.208
   588G11  C00H39978   1.685   4.277   5.302
   588G11  C00G39979   1.595   4.343   5.391
   588G11  C00S39980   1.740   4.494   5.208
   588G11  C00T39981   1.654   4.552   5.298
   588G11  C00U39982   1.646   4.692   5.304
   588G11  C00R39983   1.792   4.570   5.105
   588G11  C00L39984   1.886   4.367   5.009
   588G11  C02839985   1.693   4.144   5.306
   588G11  C02339986   1.605   4.068   5.382
   588G11  C02439987   1.510   4.129   5.466
   588G11  C02139988   1.603   3.932   5.366
   588G11  C02239989   1.505   3.857   5.430
   588G11  C02H39990   1.426   3.915   5.523
   588G11  C03039991   1.332   3.842   5.595
   588G11  C03439992   1.335   3.703   5.585
   588G11  C02P39993   1.503   3.723   5.408
   588G11  C02B39994   1.570   3.662   5.309
   588G11  C01J39995   1.863   3.879   5.120
   588G11  C01X39996   1.783   3.644   4.853
   588G11  C01T39997   1.911   3.951   5.012
   588G11  H00939998   2.165   3.710   4.351
   588G11  C01P39999   2.083   3.964   4.563
   588G11  C01R40000   1.988   4.089   4.787
   588G11  C00Z40001   2.117   4.385   4.590
   588G11  O00040002   2.119   4.520   4.592
   588G11  C00M40003   1.942   4.298   4.903
   588G11  C00Y40004   2.059   4.582   4.699
   588G11  C01340005   2.057   4.725   4.703
   588G11  H00140006   2.103   4.783   4.625
   588G11  C00Q40007   1.864   4.508   5.008
   588G11  C00140008   1.986   4.796   4.802
   588G11  C00040009   1.981   4.934   4.805
   588G11  H00640010   2.038   4.987   4.730
   588G11  C00W40011   1.763   4.712   5.092
   588G11  C01G40012   1.888   5.004   4.884
   588G11  H00540013   1.876   5.108   4.856
   588G11  C01C40014   1.647   5.141   4.955
   588G11  H00240015   1.674   5.183   4.860
   588G11  C01B40016   1.539   5.189   5.036
   588G11  C01D40017   1.470   5.315   5.017
   588G11  H00340018   1.490   5.384   4.936
   588G11  C01E40019   1.379   5.349   5.104
   588G11  H00440020   1.322   5.439   5.085
   588G11  O00240021   1.349   5.273   5.215
   588G11  C01A40022   1.519   5.109   5.146
   588G11  C00V40023   1.685   4.770   5.198
   588G11  C01940024   1.421   5.150   5.238
   588G11  C02E40025   0.987   5.059   5.639
   588G11  C0FX40026   0.888   5.121   5.713
   588G11  C0FW40027   0.808   5.051   5.796
   588G11  C0GB40028   0.868   5.257   5.695
   588G11  C0G340029   1.006   4.920   5.656
   588G11  C07H40030   0.920   4.848   5.734
   588G11  C0GC40031   0.936   5.331   5.594
   588G11  C0G240032   0.767   5.317   5.765
   588G11  C0G140033   0.685   5.245   5.847
   588G11  C0FB40034   0.386   5.299   6.061
   588G11  C0F240035   0.415   5.016   6.081
   588G11  C0FY40036   0.698   5.109   5.856
   588G11  C0F540037   0.525   4.818   6.011
   588G11  C0FV40038   0.818   4.912   5.801
   588G11  C07940039   0.648   4.621   5.950
   588G11  C07A40040   0.777   4.426   5.901
   588G11  C06Y40041   0.989   4.298   5.782
   588G11  C07D40042   0.943   4.709   5.748
   588G11  C01F40043   1.118   4.862   5.604
   588G11  C00A40044   1.334   4.881   5.485
   588G11  C00X40045   1.558   4.753   5.389
   588G11  C00F40046   1.585   4.479   5.389
   588G11  C02940047   1.282   4.532   5.598
   588G11  C02540048   1.503   4.269   5.468
   588G11  C06U40049   1.200   4.315   5.672
   588G11  C02A40050   1.423   4.054   5.539
   588G11  C05Y40051   1.227   3.900   5.662
   588G11  C05Z40052   1.126   3.817   5.718
   588G11  C06040053   1.131   3.682   5.715
   588G11  C06240054   1.028   3.601   5.758
   588G11  C06T40055   1.104   4.236   5.728
   588G11  C06A40056   1.017   3.877   5.775
   588G11  C06Z40057   0.898   4.219   5.849
   588G11  C06Q40058   0.705   4.066   5.974
   588G11  C06840059   0.915   3.802   5.837
   588G11  C06740060   0.921   3.665   5.823
   588G11  C06340061   0.594   3.443   5.995
   588G11  C06C40062   0.482   3.375   6.045
   588G11  C06D40063   0.462   3.240   6.029
   588G11  C06E40064   0.353   3.165   6.061
   588G11  C07Q40065   0.254   3.233   6.129
   588G11  C07P40066   0.267   3.371   6.157
   588G11  C07T40067   0.170   3.432   6.226
   588G11  C07U40068   0.179   3.572   6.244
   588G11  C07V40069   0.072   3.633   6.317
   588G11  C08440070  -0.040   3.563   6.352
   588G11  C08C40071  -0.051   3.428   6.324
   588G11  C08B40072  -0.172   3.365   6.350
   588G11  C08A40073  -0.178   3.236   6.311
   588G11  C08940074  -0.085   3.164   6.244
   588G11  C08840075  -0.107   3.035   6.197
   588G11  C08740076  -0.008   2.969   6.123
   588G11  C08640077   0.113   3.032   6.102
   588G11  C08X40078  -0.233   2.975   6.210
   588G11  C08T40079  -0.343   3.062   6.267
   588G11  C08D40080   0.032   3.231   6.219
   588G11  C08U40081  -0.304   3.186   6.313
   588G11  C08V40082  -0.411   3.254   6.359
   588G11  C0CY40083  -0.406   3.387   6.400
   588G11  C0CX40084  -0.525   3.447   6.430
   588G11  C0CW40085  -0.507   3.581   6.470
   588G11  C0CV40086  -0.386   3.642   6.473
   588G11  C0D440087  -0.267   3.572   6.432
   588G11  C0CU40088  -0.374   3.775   6.506
   588G11  C0CT40089  -0.490   3.854   6.536
   588G11  C0CS40090  -0.614   3.786   6.538
   588G11  C0D640091  -0.254   3.828   6.487
   588G11  C0EC40092  -0.140   3.767   6.437
   588G11  C07X40093  -0.027   3.835   6.395
   588G11  C0DL40094  -0.250   3.964   6.508
   588G11  C0DK40095  -0.138   4.032   6.469
   588G11  C0DN40096  -0.168   4.165   6.471
   588G11  C0D840097  -0.352   4.053   6.542
   588G11  C08W40098  -0.534   3.186   6.344
   588G11  C0CQ40099  -0.658   3.245   6.388
   588G11  C09340100  -0.281   3.437   6.398
   588G11  C09240101  -0.147   3.634   6.414
   588G11  C08540102   0.053   3.363   6.261
   588G11  C07S40103   0.135   3.163   6.150
   588G11  C06F40104   0.336   3.031   6.025
   588G11  C07O40105   0.380   3.441   6.108
   588G11  C07N40106   0.390   3.578   6.129
   588G11  C05D40107   0.569   3.178   5.971
   588G11  C05C40108   0.554   3.043   5.943
   588G11  C05N40109   0.658   3.016   5.859
   588G11  C05M40110   0.936   3.244   5.746
   588G11  C05I40111   1.025   3.462   5.732
   588G11  C06140112   1.239   3.622   5.649
   588G11  C02Q40113   1.426   3.651   5.497
   588G11  C02O40114   1.542   3.533   5.268
   588G11  C03Q40115   1.329   3.331   5.474
   588G11  C03O40116   1.219   3.122   5.398
   588G11  C03L40117   1.279   2.939   5.104
   588G11  C02S40118   1.461   3.258   5.145
   588G11  C02T40119   1.540   3.203   4.882
   588G11  C03K40120   1.322   2.900   4.964
   588G11  C03I40121   1.569   3.181   4.748
   588G11  C03G40122   1.618   3.138   4.474
   588G11  H00D40123   1.630   3.134   4.367
   588G11  C03J40124   1.399   2.857   4.690
   588G11  C03W40125   1.314   2.640   4.538
   588G11  C04I40126   1.178   2.565   4.713
   588G11  C04K40127   0.981   2.411   4.836
   588G11  C04N40128   0.883   2.348   4.909
   588G11  C04X40129   0.724   2.342   5.093
   588G11  C05040130   0.543   2.351   5.265
   588G11  C05W40131   0.714   2.526   5.412
   588G11  C05S40132   0.305   2.499   5.637
   588G11  C05R40133   0.621   2.629   5.670
   588G11  C05O40134   0.657   2.888   5.799
   588G11  C05B40135   0.435   2.969   5.954
   588G11  C05A40136   0.319   2.649   5.828
   588G11  C07R40137   0.215   2.961   6.037
   588G11  C08N40138  -0.038   2.844   6.059
   588G11  C08M40139  -0.161   2.782   6.081
   588G11  C08L40140  -0.191   2.659   6.009
   588G11  C09140141   0.227   2.582   5.743
   588G11  C09K40142  -0.082   2.518   5.609
   588G11  H00M40143  -0.054   2.555   5.512
   588G11  C08K40144  -0.092   2.605   5.920
   588G11  C09J40145  -0.214   2.465   5.638
   588G11  C09I40146  -0.352   2.459   5.592
   588G11  C09L40147  -0.411   2.427   5.458
   588G11  H00N40148  -0.356   2.415   5.367
   588G11  C09Q40149  -0.544   2.402   5.450
   588G11  H00O40150  -0.584   2.368   5.356
   588G11  O00B40151  -0.631   2.419   5.560
   588G11  C09G40152  -0.588   2.448   5.687
   588G11  C09F40153  -0.688   2.463   5.792
   588G11  O00A40154  -0.813   2.441   5.744
   588G11  C09P40155  -0.912   2.447   5.832
   588G11  H00P40156  -0.974   2.361   5.854
   588G11  C09O40157  -0.908   2.548   5.933
   588G11  C09D40158  -0.782   2.564   5.996
   588G11  C09C40159  -0.749   2.641   6.116
   588G11  C09N40160  -0.823   2.737   6.195
   588G11  C09T40161  -0.938   2.808   6.139
   588G11  C09S40162  -1.020   2.748   6.048
   588G11  C0CP40163  -1.123   2.840   6.040
   588G11  C0CN40164  -1.109   2.953   6.127
   588G11  C0CO40165  -1.211   3.049   6.125
   588G11  H01440166  -1.206   3.132   6.194
   588G11  C0CZ40167  -1.315   3.025   6.026
   588G11  H01540168  -1.392   3.097   6.003
   588G11  C0D040169  -1.331   2.904   5.949
   588G11  C0G540170  -1.448   2.871   5.870
   588G11  H01F40171  -1.526   2.945   5.856
   588G11  C0G440172  -1.459   2.752   5.803
   588G11  H01G40173  -1.541   2.726   5.738
   588G11  O00H40174  -1.369   2.648   5.818
   588G11  C0D240175  -1.250   2.685   5.884
   588G11  C09V40176  -1.141   2.595   5.890
   588G11  H00Q40177  -1.155   2.500   5.840
   588G11  C0D140178  -1.232   2.810   5.954
   588G11  C09R40179  -1.019   2.629   5.965
   588G11  C09H40180  -0.447   2.464   5.703
   588G11  C09E40181  -0.668   2.515   5.923
   588G11  C09B40182  -0.624   2.644   6.180
   588G11  C08Z40183  -0.326   2.615   6.019
   588G11  C08O40184  -0.258   2.844   6.169
   588G11  C09A40185  -0.607   2.732   6.287
   588G11  C08S40186  -0.487   3.062   6.293
   588G11  C09940187  -0.731   2.804   6.294
   588G11  C09U40188  -0.983   2.931   6.196
   588G11  C0BO40189  -1.133   3.270   6.459
   588G11  C0CL40190  -0.783   3.181   6.381
   588G11  C0D340191  -0.651   3.381   6.432
   588G11  C0D540192  -0.622   3.652   6.499
   588G11  C0BR40193  -1.004   3.469   6.465
   588G11  C0BQ40194  -1.128   3.403   6.469
   588G11  C0BL40195  -1.372   3.281   6.512
   588G11  C0AF40196  -1.596   3.425   6.552
   588G11  C0BH40197  -1.349   3.692   6.517
   588G11  C0BG40198  -1.346   3.829   6.545
   588G11  C0BD40199  -1.588   3.845   6.560
   588G11  C0AG40200  -1.708   3.501   6.570
   588G11  C0AI40201  -1.938   3.507   6.629
   588G11  C0AV40202  -2.157   3.632   6.733
   588G11  C0BB40203  -1.949   3.914   6.608
   588G11  O00C40204  -2.246   3.852   6.807
   588G11  C0BC40205  -1.957   4.041   6.656
   588G11  C0B940206  -1.708   3.916   6.584
   588G11  O00E40207  -1.569   4.243   6.660
   588G11  C0CA40208  -1.450   4.301   6.684
   588G11  O00F40209  -1.458   4.417   6.727
   588G11  C0BF40210  -1.463   3.906   6.564
   588G11  C0C540211  -1.331   4.225   6.658
   588G11  C0C440212  -1.202   4.289   6.676
   588G11  H01140213  -1.205   4.391   6.710
   588G11  C0C840214  -1.220   3.892   6.555
   588G11  C0C240215  -1.078   4.217   6.649
   588G11  C0C340216  -0.949   4.268   6.663
   588G11  C0DY40217  -0.915   4.395   6.697
   588G11  H01640218  -0.973   4.481   6.730
   588G11  C0DX40219  -0.770   4.400   6.691
   588G11  C0DW40220  -0.704   4.518   6.737
   588G11  C0BY40221  -0.974   3.878   6.541
   588G11  C0DB40222  -0.835   4.197   6.631
   588G11  C0CC40223  -0.730   3.862   6.547
   588G11  C0D740224  -0.482   3.994   6.554
   588G11  C0DZ40225  -0.721   4.276   6.634
   588G11  C0DM40226  -0.299   4.184   6.531
   588G11  C0DQ40227  -0.485   4.470   6.622
   588G11  C0DV40228  -0.580   4.555   6.682
   588G11  C0E040229  -0.748   4.631   6.812
   588G11  C0FO40230  -0.540   4.890   6.941
   588G11  C0E340231  -0.787   4.646   6.952
   588G11  H01740232  -0.826   4.567   7.014
   588G11  C0GV40233  -0.558   4.893   7.080
   588G11  C0ES40234  -0.406   4.897   6.887
   588G11  C0GQ40235  -0.236   5.019   7.200
   588G11  C0FJ40236   0.045   5.072   6.956
   588G11  C0ED40237  -0.138   4.921   6.795
   588G11  C0ER40238   0.021   5.070   6.509
   588G11  C0EP40239   0.074   4.872   6.413
   588G11  C0E640240  -0.208   4.742   6.624
   588G11  C0DE40241  -0.143   4.475   6.486
   588G11  C0EA40242   0.152   4.648   6.316
   588G11  C0DF40243  -0.094   4.382   6.391
   588G11  C08040244   0.240   4.316   6.288
   588G11  C0DO40245  -0.078   4.244   6.419
   588G11  C0DJ40246  -0.025   3.975   6.410
   588G11  C07K40247   0.295   4.059   6.231
   588G11  C07W40248   0.081   3.774   6.331
   588G11  C08340249   0.285   3.645   6.194
   588G11  C07J40250   0.404   3.989   6.167
   588G11  C06O40251   0.611   3.854   6.032
   588G11  C06M40252   0.503   3.646   6.085
   598G11  C07140253   6.607  10.395   6.065
   598G11  C07L40254   6.505  10.301   6.082
   598G11  C07M40255   6.484  10.238   6.204
   598G11  C07Y40256   6.383  10.140   6.220
   598G11  C08140257   6.292  10.104   6.111
   598G11  C08240258   6.195  10.006   6.136
   598G11  C0DI40259   6.092   9.949   6.047
   598G11  C0DH40260   6.055   9.977   5.911
   598G11  C0DG40261   5.932   9.911   5.881
   598G11  C0E940262   5.879   9.847   5.759
   598G11  C0E840263   5.805   9.723   5.813
   598G11  C0E740264   5.712   9.641   5.741
   598G11  C0EB40265   5.666   9.686   5.614
   598G11  C0EF40266   5.535   9.654   5.549
   598G11  C0EE40267   5.412   9.606   5.594
   598G11  C0FD40268   5.291   9.650   5.526
   598G11  C0FE40269   5.274   9.768   5.448
   598G11  H01B40270   5.357   9.835   5.429
   598G11  C0FF40271   5.157   9.802   5.375
   598G11  H01A40272   5.143   9.897   5.326
   598G11  C0FG40273   5.063   9.704   5.379
   598G11  H01840274   4.970   9.727   5.329
   598G11  C0FH40275   5.063   9.586   5.460
   598G11  C0FI40276   4.949   9.501   5.476
   598G11  H01940277   4.867   9.510   5.406
   598G11  O00K40278   4.946   9.400   5.565
   598G11  C0FL40279   5.064   9.369   5.627
   598G11  C0FK40280   5.189   9.444   5.616
   598G11  C0FM40281   5.307   9.407   5.682
   598G11  C0FN40282   5.304   9.284   5.753
   598G11  C0FP40283   5.181   9.216   5.775
   598G11  C0GO40284   5.168   9.110   5.859
   598G11  C0GN40285   5.052   9.070   5.925
   598G11  C0GR40286   4.938   9.130   5.873
   598G11  C0GS40287   4.819   9.108   5.941
   598G11  H01Q40288   4.731   9.158   5.904
   598G11  C0GT40289   4.811   9.011   6.045
   598G11  H01O40290   4.716   8.992   6.092
   598G11  C0GU40291   4.928   8.949   6.087
   598G11  H01P40292   4.917   8.875   6.165
   598G11  O00L40293   4.945   9.221   5.769
   598G11  C0GM40294   5.049   8.974   6.028
   598G11  C0GL40295   5.177   8.924   6.071
   598G11  H01R40296   5.187   8.864   6.160
   598G11  C0GK40297   5.296   8.965   6.008
   598G11  C0GP40298   5.439   8.951   6.041
   598G11  C0E240299   5.513   9.020   5.939
   598G11  C0E140300   5.625   9.077   6.002
   598G11  C0DU40301   5.660   9.217   5.997
   598G11  C0DT40302   5.639   9.305   5.897
   598G11  C0E440303   5.533   9.316   5.806
   598G11  C0E540304   5.537   9.435   5.735
   598G11  C0DS40305   5.691   9.434   5.897
   598G11  C0DR40306   5.761   9.470   6.014
   598G11  C0DD40307   5.816   9.594   6.054
   598G11  C0DC40308   5.869   9.578   6.190
   598G11  C0DP40309   5.828   9.454   6.249
   598G11  C0DA40310   5.856   9.397   6.383
   598G11  C0D940311   5.936   9.446   6.500
   598G11  C0CR40312   5.943   9.377   6.628
   598G11  C0C040313   5.863   9.266   6.656
   598G11  C0BZ40314   5.849   9.195   6.772
   598G11  C0C140315   5.763   9.088   6.783
   598G11  C0C740316   5.773   9.008   6.896
   598G11  C0C640317   5.684   8.896   6.912
   598G11  C0C940318   5.703   8.814   7.017
   598G11  C0B840319   5.618   8.705   7.024
   598G11  C0B740320   5.619   8.619   7.142
   598G11  C0B640321   5.528   8.508   7.191
   598G11  C0B540322   5.399   8.449   7.151
   598G11  H00Z40323   5.336   8.457   7.064
   598G11  C0B440324   5.357   8.370   7.268
   598G11  H01040325   5.266   8.315   7.284
   598G11  C0B340326   5.459   8.365   7.374
   598G11  C0AP40327   5.512   8.334   7.509
   598G11  C0AQ40328   5.637   8.406   7.500
   598G11  C0AR40329   5.703   8.463   7.614
   598G11  C0AS40330   5.801   8.551   7.586
   598G11  C0AT40331   5.820   8.609   7.461
   598G11  C0BA40332   5.738   8.576   7.361
   598G11  C0AU40333   5.896   8.721   7.444
   598G11  C0BE40334   5.888   8.797   7.330
   598G11  C0BI40335   5.970   8.910   7.322
   598G11  C0BJ40336   6.056   8.945   7.426
   598G11  C0BK40337   6.136   9.059   7.419
   598G11  C0BW40338   6.131   9.137   7.306
   598G11  C0BV40339   6.044   9.101   7.198
   598G11  C0BU40340   6.036   9.184   7.090
   598G11  C0BX40341   5.944   9.152   6.986
   598G11  C0BT40342   6.106   9.299   7.080
   598G11  C0CD40343   6.102   9.380   6.967
   598G11  C0CB40344   6.020   9.344   6.858
   598G11  C0CE40345   6.179   9.491   6.957
   598G11  C0CK40346   6.261   9.528   7.065
   598G11  C0BS40347   6.263   9.456   7.181
   598G11  C0CJ40348   6.348   9.494   7.290
   598G11  C0BP40349   6.349   9.420   7.404
   598G11  C0CI40350   6.431   9.456   7.516
   598G11  C0CH40351   6.435   9.361   7.622
   598G11  H01240352   6.503   9.374   7.705
   598G11  C0BN40353   6.353   9.248   7.632
   598G11  C0CG40354   6.330   9.190   7.757
   598G11  C0CF40355   6.405   9.230   7.871
   598G11  H01340356   6.465   9.320   7.883
   598G11  O00G40357   6.394   9.174   7.996
   598G11  C0AA40358   6.296   9.084   8.003
   598G11  C0A940359   6.267   9.036   8.133
   598G11  H00U40360   6.341   9.052   8.210
   598G11  C0A840361   6.160   8.942   8.153
   598G11  H00V40362   6.152   8.913   8.257
   598G11  C0A740363   6.084   8.893   8.049
   598G11  C0A640364   6.126   8.931   7.916
   598G11  C0A540365   6.072   8.871   7.794
   598G11  C0A440366   5.996   8.752   7.801
   598G11  C0A340367   5.934   8.665   7.901
   598G11  C0A240368   5.898   8.711   8.025
   598G11  C0A140369   5.819   8.632   8.117
   598G11  C0A040370   5.726   8.514   8.110
   598G11  C09Z40371   5.684   8.460   8.229
   598G11  C09Y40372   5.585   8.355   8.231
   598G11  H00Y40373   5.553   8.317   8.326
   598G11  C09X40374   5.531   8.307   8.112
   598G11  C09W40375   5.429   8.214   8.124
   598G11  H00R40376   5.385   8.170   8.213
   598G11  C0AX40377   5.400   8.139   8.004
   598G11  H00S40378   5.341   8.049   8.014
   598G11  C0AW40379   5.447   8.178   7.882
   598G11  H00T40380   5.411   8.116   7.801
   598G11  C0AN40381   5.522   8.294   7.869
   598G11  C0AO40382   5.554   8.350   7.748
   598G11  C0AM40383   5.578   8.348   7.987
   598G11  C0B240384   5.730   8.503   8.359
   598G11  O00D40385   5.693   8.449   8.462
   598G11  C0B140386   5.817   8.616   8.367
   598G11  H00W40387   5.849   8.658   8.461
   598G11  C0AL40388   5.679   8.453   7.987
   598G11  C0AK40389   5.730   8.486   7.861
   598G11  C0B040390   5.855   8.679   8.245
   598G11  C0AZ40391   5.950   8.783   8.235
   598G11  H00X40392   5.995   8.833   8.320
   598G11  C0AJ40393   5.845   8.573   7.832
   598G11  C0AH40394   5.959   8.696   7.674
   598G11  C0AE40395   6.096   8.924   7.664
   598G11  C0AD40396   6.180   9.038   7.653
   598G11  C0AY40397   5.985   8.801   8.094
   598G11  C0AB40398   6.223   9.029   7.894
   598G11  C0AC40399   6.248   9.082   7.770
   598G11  C0BM40400   6.276   9.215   7.525
   598G11  C0CM40401   6.490   9.580   7.519
   598G11  C09M40402   6.525   9.635   7.392
   598G11  C09840403   6.655   9.687   7.377
   598G11  C08R40404   6.722   9.763   7.272
   598G11  C08Q40405   6.857   9.784   7.290
   598G11  C08P40406   6.959   9.882   7.252
   598G11  C08Y40407   7.061   9.894   7.341
   598G11  C09740408   7.056   9.849   7.472
   598G11  C09640409   7.098   9.941   7.563
   598G11  C09040410   7.189  10.019   7.484
   598G11  C09540411   7.259  10.128   7.532
   598G11  C09440412   7.350  10.195   7.451
   598G11  C08J40413   7.374  10.202   7.308
   598G11  C08I40414   7.418  10.338   7.282
   598G11  C08H40415   7.372  10.373   7.147
   598G11  C08G40416   7.259  10.287   7.114
   598G11  C08F40417   7.150  10.281   7.020
   598G11  C08E40418   7.143  10.386   6.920
   598G11  C05940419   7.231  10.497   6.896
   598G11  C05840420   7.218  10.584   6.785
   598G11  C05740421   7.299  10.693   6.752
   598G11  C05640422   7.400  10.719   6.842
   598G11  C05540423   7.413  10.660   6.963
   598G11  C05440424   7.549  10.665   6.997
   598G11  C05340425   7.627  10.729   6.898
   598G11  C05240426   7.765  10.732   6.871
   598G11  C05140427   7.858  10.672   6.963
   598G11  C05U40428   7.826  10.583   7.078
   598G11  C05T40429   7.706  10.517   7.116
   598G11  C06K40430   7.729  10.463   7.242
   598G11  H00J40431   7.654  10.415   7.302
   598G11  C06L40432   7.863  10.490   7.284
   598G11  H00I40433   7.910  10.466   7.378
   598G11  C05V40434   7.921  10.560   7.177
   598G11  C06J40435   8.052  10.601   7.168
   598G11  H00K40436   8.125  10.592   7.246
   598G11  C05X40437   8.093  10.661   7.053
   598G11  C06I40438   8.231  10.696   7.021
   598G11  H00L40439   8.305  10.678   7.097
   598G11  C04Z40440   8.278  10.743   6.895
   598G11  C06H40441   8.421  10.764   6.871
   598G11  H00H40442   8.492  10.746   6.950
   598G11  C04Y40443   8.467  10.826   6.749
   598G11  C06G40444   8.609  10.843   6.720
   598G11  O00940445   8.708  10.809   6.797
   598G11  O00840446   8.634  10.907   6.606
   598G11  C04P40447   8.545  10.949   6.519
   598G11  C04J40448   8.583  11.024   6.401
   598G11  C04Q40449   8.708  11.070   6.349
   598G11  H00E40450   8.789  11.047   6.417
   598G11  C04M40451   8.727  11.149   6.233
   598G11  C04R40452   8.846  11.207   6.191
   598G11  H00F40453   8.928  11.196   6.261
   598G11  C04S40454   8.857  11.281   6.082
   598G11  H00G40455   8.946  11.336   6.052
   598G11  O00740456   8.754  11.290   5.987
   598G11  C03V40457   8.632  11.239   6.032
   598G11  C03U40458   8.520  11.250   5.953
   598G11  O00640459   8.545  11.305   5.834
   598G11  C03F40460   8.447  11.317   5.747
   598G11  C03E40461   8.316  11.276   5.768
   598G11  C03D40462   8.285  11.228   5.897
   598G11  C03C40463   8.151  11.194   5.932
   598G11  C03B40464   8.062  11.216   5.826
   598G11  C03A40465   7.928  11.180   5.853
   598G11  C03940466   7.888  11.138   5.985
   598G11  C03840467   7.749  11.103   5.962
   598G11  C03740468   7.729  11.130   5.822
   598G11  C03640469   7.605  11.126   5.773
   598G11  C02R40470   7.563  11.144   5.640
   598G11  C03540471   7.429  11.088   5.649
   598G11  C03R40472   7.401  11.045   5.776
   598G11  C03S40473   7.295  10.959   5.803
   598G11  C04940474   7.283  10.913   5.930
   598G11  C04840475   7.389  10.943   6.013
   598G11  C03P40476   7.515  11.022   5.982
   598G11  C04740477   7.365  10.910   6.147
   598G11  C04640478   7.445  10.933   6.253
   598G11  C04540479   7.576  10.982   6.265
   598G11  C03T40480   7.668  11.032   6.170
   598G11  C04440481   7.788  11.047   6.241
   598G11  C04340482   7.762  11.040   6.380
   598G11  C04240483   7.886  11.006   6.438
   598G11  C04140484   7.986  11.038   6.336
   598G11  C04040485   8.123  11.019   6.363
   598G11  C03Z40486   8.225  11.049   6.266
   598G11  C04H40487   8.345  11.023   6.335
   598G11  C04G40488   8.312  10.946   6.447
   598G11  C03N40489   8.239  11.111   6.140
   598G11  C03Y40490   8.371  11.154   6.109
   598G11  C03X40491   8.485  11.133   6.193
   598G11  C04F40492   8.181  10.952   6.471
   598G11  C04E40493   8.134  10.893   6.591
   598G11  C04O40494   8.229  10.843   6.681
   598G11  C04D40495   7.999  10.878   6.628
   598G11  C04V40496   7.961  10.810   6.746
   598G11  C04W40497   8.051  10.758   6.836
   598G11  C04C40498   7.883  10.918   6.561
   598G11  C04L40499   7.773  10.876   6.643
   598G11  C04U40500   7.635  10.908   6.623
   598G11  C05Q40501   7.528  10.842   6.688
   598G11  C05P40502   7.413  10.843   6.611
   598G11  C04T40503   7.442  10.897   6.489
   598G11  C04B40504   7.573  10.942   6.500
   598G11  C03M40505   7.927  11.068   6.211
   598G11  C04A40506   7.635  10.986   6.386
   598G11  C05H40507   7.377  10.888   6.364
   598G11  C05G40508   7.261  10.819   6.319
   598G11  C05F40509   7.167  10.759   6.410
   598G11  C05E40510   7.061  10.671   6.367
   598G11  C05L40511   6.993  10.639   6.241
   598G11  C05K40512   7.024  10.705   6.117
   598G11  C05J40513   7.136  10.793   6.087
   598G11  C06640514   6.935  10.671   6.011
   598G11  C06540515   6.825  10.581   6.029
   598G11  C06440516   6.797  10.521   6.153
   598G11  C06N40517   6.743  10.544   5.921
   598G11  C06940518   6.765  10.606   5.795
   598G11  C06P40519   6.691  10.560   5.687
   598G11  C06R40520   6.722  10.600   5.555
   598G11  C06B40521   6.828  10.685   5.538
   598G11  C06S40522   6.872  10.715   5.406
   598G11  C02G40523   6.983  10.793   5.383
   598G11  C02F40524   7.027  10.813   5.252
   598G11  C02740525   6.971  10.747   5.145
   598G11  C02640526   7.027  10.756   5.017
   598G11  C00E40527   6.976  10.672   4.917
   598G11  C00D40528   7.044  10.670   4.796
   598G11  C00C40529   6.999  10.579   4.706
   598G11  C00B40530   6.891  10.501   4.718
   598G11  C01540531   6.826  10.503   4.841
   598G11  C07F40532   6.718  10.414   4.863
   598G11  C07E40533   6.657  10.408   4.987
   598G11  C06W40534   6.708  10.487   5.089
   598G11  C06V40535   6.812  10.580   5.065
   598G11  C06X40536   6.646  10.486   5.213
   598G11  C07B40537   6.537  10.400   5.238
   598G11  C07C40538   6.492  10.315   5.136
   598G11  C0FU40539   6.387  10.229   5.161
   598G11  C0F740540   6.335  10.156   5.056
   598G11  C0F640541   6.225  10.068   5.074
   598G11  C0F840542   6.167  10.005   4.967
   598G11  C0F940543   6.053   9.930   4.985
   598G11  C0FA40544   5.996   9.868   4.878
   598G11  C0FZ40545   6.058   9.876   4.753
   598G11  C0G040546   6.007   9.806   4.641
   598G11  C0GD40547   5.886   9.740   4.649
   598G11  C0FC40548   5.825   9.736   4.778
   598G11  C0GH40549   5.711   9.660   4.794
   598G11  C0EY40550   5.652   9.644   4.919
   598G11  C0EX40551   5.530   9.575   4.930
   598G11  C0EW40552   5.474   9.565   5.058
   598G11  C0FR40553   5.351   9.494   5.067
   598G11  H01D40554   5.296   9.472   5.157
   598G11  C0FS40555   5.293   9.431   4.956
   598G11  H01C40556   5.197   9.382   4.963
   598G11  C0GJ40557   5.355   9.438   4.828
   598G11  H01N40558   5.313   9.400   4.736
   598G11  C0EV40559   5.536   9.615   5.168
   598G11  C0FT40560   5.481   9.603   5.296
   598G11  H01E40561   5.387   9.556   5.319
   598G11  C0EU40562   5.657   9.678   5.153
   598G11  C0ET40563   5.727   9.730   5.264
   598G11  C0EI40564   5.840   9.811   5.257
   598G11  C0F140565   5.890   9.833   5.129
   598G11  C0F040566   5.828   9.777   5.021
   598G11  C0EH40567   5.895   9.868   5.377
   598G11  C0EG40568   5.851   9.838   5.511
   598G11  C0EJ40569   6.002   9.959   5.355
   598G11  C0F340570   6.050   9.980   5.228
   598G11  C0EK40571   6.059  10.031   5.465
   598G11  C0EL40572   6.014  10.005   5.601
   598G11  C0EM40573   6.089  10.089   5.695
   598G11  C0EN40574   6.179  10.181   5.656
   598G11  C07I40575   6.252  10.232   5.763
   598G11  C07440576   6.367  10.304   5.744
   598G11  C07340577   6.442  10.337   5.854
   598G11  C07240578   6.551  10.421   5.834
   598G11  C07540579   6.395  10.344   5.618
   598G11  C07640580   6.325  10.292   5.510
   598G11  C07840581   6.377  10.305   5.389
   598G11  C07G40582   6.501  10.425   5.599
   598G11  C07040583   6.545  10.460   5.470
   598G11  C07Z40584   6.220  10.162   5.882
   598G11  C07740585   6.221  10.199   5.526
   598G11  C0EO40586   6.160  10.122   5.435
   598G11  C0F440587   6.217  10.133   5.304
   598G11  C0EQ40588   5.670   9.714   5.389
   598G11  C0FQ40589   5.471   9.512   4.820
   598G11  C0GI40590   5.538   9.524   4.695
   598G11  H01L40591   5.505   9.480   4.602
   598G11  C0EZ40592   5.716   9.702   5.027
   598G11  C0GG40593   5.652   9.596   4.678
   598G11  C0GF40594   5.717   9.605   4.552
   598G11  H01M40595   5.673   9.565   4.462
   598G11  C0GE40596   5.827   9.685   4.539
   598G11  H01K40597   5.877   9.708   4.446
   598G11  O00J40598   6.071   9.804   4.523
   598G11  C0GA40599   6.204   9.845   4.523
   598G11  C0G940600   6.283   9.820   4.411
   598G11  H01H40601   6.243   9.754   4.336
   598G11  C0G840602   6.411   9.879   4.391
   598G11  C0G740603   6.501   9.846   4.285
   598G11  H01I40604   6.470   9.769   4.216
   598G11  O00I40605   6.623   9.903   4.268
   598G11  C0G640606   6.655   9.998   4.361
   598G11  H01J40607   6.753  10.042   4.347
   598G11  C02D40608   6.574  10.040   4.474
   598G11  C02C40609   6.611  10.135   4.567
   598G11  C01740610   6.715  10.226   4.546
   598G11  C01640611   6.753  10.323   4.642
   598G11  O00140612   6.768  10.235   4.428
   598G11  C01840613   6.890  10.302   4.400
   598G11  C00940614   6.932  10.398   4.490
   598G11  C00840615   7.042  10.493   4.484
   598G11  C00740616   7.151  10.516   4.392
   598G11  C00640617   7.180  10.431   4.282
   598G11  C00540618   7.302  10.444   4.201
   598G11  C00440619   7.415  10.535   4.205
   598G11  C00340620   7.461  10.621   4.309
   598G11  C00240621   7.591  10.672   4.303
   598G11  C00P40622   7.646  10.750   4.415
   598G11  C00O40623   7.784  10.778   4.426
   598G11  C00N40624   7.837  10.839   4.539
   598G11  C01040625   7.974  10.853   4.553
   598G11  C01140626   8.038  10.899   4.673
   598G11  C01Q40627   8.171  10.880   4.699
   598G11  C01U40628   8.257  10.833   4.601
   598G11  C01240629   8.197  10.805   4.476
   598G11  H00040630   8.255  10.763   4.395
   598G11  C01V40631   8.390  10.820   4.640
   598G11  H00740632   8.455  10.776   4.567
   598G11  O00540633   8.448  10.853   4.761
   598G11  C01W40634   8.356  10.884   4.859
   598G11  C03140635   8.407  10.908   4.987
   598G11  C03240636   8.324  10.939   5.090
   598G11  H00A40637   8.365  10.935   5.190
   598G11  C03340638   8.185  10.961   5.059
   598G11  H00B40639   8.109  10.972   5.135
   598G11  C01O40640   8.136  10.965   4.927
   598G11  C01N40641   8.004  11.003   4.895
   598G11  C01M40642   7.918  11.095   4.976
   598G11  C01L40643   7.911  11.144   5.112
   598G11  C01K40644   7.778  11.160   5.140
   598G11  C01Y40645   7.725  11.175   5.267
   598G11  C02I40646   7.814  11.194   5.370
   598G11  C02N40647   7.762  11.188   5.500
   598G11  C02M40648   7.860  11.206   5.606
   598G11  C02L40649   7.994  11.241   5.587
   598G11  C02K40650   8.037  11.263   5.451
   598G11  C02U40651   8.172  11.301   5.427
   598G11  C02V40652   8.260  11.312   5.536
   598G11  C03H40653   8.397  11.348   5.512
   598G11  H00C40654   8.454  11.386   5.428
   598G11  C02W40655   8.216  11.319   5.299
   598G11  C02X40656   8.137  11.251   5.202
   598G11  C02Y40657   8.217  11.253   5.085
   598G11  H00840658   8.188  11.219   4.986
   598G11  C02Z40659   8.352  11.297   5.126
   598G11  O00440660   8.451  11.294   5.053
   598G11  O00340661   8.339  11.334   5.257
   598G11  C02J40662   7.953  11.225   5.343
   598G11  C01Z40663   7.591  11.137   5.281
   598G11  C02040664   7.510  11.095   5.172
   598G11  C01I40665   7.566  11.088   5.050
   598G11  C01H40666   7.517  11.015   4.945
   598G11  C00K40667   7.588  10.992   4.828
   598G11  C01S40668   7.725  11.019   4.825
   598G11  C01440669   7.812  10.959   4.743
   598G11  C00J40670   7.535  10.913   4.730
   598G11  C00I40671   7.408  10.862   4.743
   598G11  C00H40672   7.333  10.881   4.862
   598G11  C00G40673   7.211  10.824   4.881
   598G11  C00S40674   7.357  10.779   4.642
   598G11  C00T40675   7.239  10.727   4.664
   598G11  C00U40676   7.191  10.634   4.570
   598G11  C00R40677   7.435  10.739   4.531
   598G11  C00L40678   7.611  10.875   4.620
   598G11  C02840679   7.389  10.960   4.963
   598G11  C02340680   7.321  10.971   5.087
   598G11  C02440681   7.198  10.901   5.104
   598G11  C02140682   7.388  11.031   5.192
   598G11  C02240683   7.335  11.016   5.318
   598G11  C02H40684   7.210  10.953   5.337
   598G11  C03040685   7.161  10.930   5.467
   598G11  C03440686   7.237  10.975   5.572
   598G11  C02P40687   7.412  11.072   5.420
   598G11  C02B40688   7.537  11.130   5.405
   598G11  C01J40689   7.696  11.136   5.034
   598G11  C01X40690   8.003  11.199   5.209
   598G11  C01T40691   7.782  11.089   4.933
   598G11  H00940692   8.512  10.884   5.002
   598G11  C01P40693   8.219  10.910   4.829
   598G11  C01R40694   7.953  10.955   4.774
   598G11  C00Z40695   8.060  10.808   4.447
   598G11  O00040696   8.007  10.767   4.325
   598G11  C00M40697   7.752  10.893   4.633
   598G11  C00Y40698   7.872  10.746   4.321
   598G11  C01340699   7.814  10.682   4.209
   598G11  H00140700   7.882  10.659   4.128
   598G11  C00Q40701   7.563  10.783   4.523
   598G11  C00140702   7.675  10.647   4.196
   598G11  C00040703   7.612  10.598   4.079
   598G11  H00640704   7.674  10.566   3.996
   598G11  C00W40705   7.388  10.654   4.428
   598G11  C01G40706   7.489  10.536   4.089
   598G11  H00540707   7.461  10.481   4.001
   598G11  C01C40708   7.287  10.340   4.100
   598G11  H00240709   7.359  10.309   4.026
   598G11  C01B40710   7.160  10.270   4.124
   598G11  C01D40711   7.097  10.157   4.052
   598G11  H00340712   7.144  10.115   3.964
   598G11  C01E40713   6.977  10.116   4.094
   598G11  H00440714   6.939  10.040   4.028
   598G11  O00240715   6.914  10.161   4.215
   598G11  C01A40716   7.094  10.333   4.231
   598G11  C00V40717   7.252  10.601   4.449
   598G11  C01940718   6.968  10.274   4.279
   598G11  C02E40719   6.538  10.143   4.688
   598G11  C0FX40720   6.422  10.069   4.707
   598G11  C0FW40721   6.350  10.076   4.825
   598G11  C0GB40722   6.374   9.984   4.606
   598G11  C0G340723   6.576  10.233   4.788
   598G11  C07H40724   6.513  10.235   4.908
   598G11  C0GC40725   6.453   9.969   4.491
   598G11  C0G240726   6.253   9.926   4.623
   598G11  C0G140727   6.181   9.940   4.738
   598G11  C0FB40728   5.879   9.795   4.893
   598G11  C0F240729   5.999   9.914   5.113
   598G11  C0FY40730   6.230  10.007   4.846
   598G11  C0F540731   6.165  10.057   5.203
   598G11  C0FV40732   6.396  10.158   4.928
   598G11  C07940733   6.323  10.223   5.284
   598G11  C07A40734   6.482  10.396   5.366
   598G11  C06Y40735   6.696  10.566   5.317
   598G11  C07D40736   6.550  10.318   5.012
   598G11  C01F40737   6.682  10.325   4.763
   598G11  C00A40738   6.863  10.409   4.615
   598G11  C00X40739   7.065  10.576   4.588
   598G11  C00F40740   7.162  10.747   4.779
   598G11  C02940741   6.871  10.585   4.940
   598G11  C02540742   7.143  10.832   4.998
   598G11  C06U40743   6.864  10.661   5.167
   598G11  C02A40744   7.144  10.890   5.231
   598G11  C05Y40745   7.051  10.848   5.492
   598G11  C05Z40746   7.012  10.808   5.623
   598G11  C06040747   7.098  10.845   5.724
   598G11  C06240748   7.071  10.803   5.856
   598G11  C06T40749   6.808  10.649   5.297
   598G11  C06A40750   6.901  10.733   5.647
   598G11  C06Z40751   6.654  10.543   5.450
   598G11  C06Q40752   6.579  10.471   5.708
   598G11  C06840753   6.876  10.686   5.777
   598G11  C06740754   6.955  10.724   5.883
   598G11  C06340755   6.887  10.547   6.254
   598G11  C06C40756   6.864  10.481   6.377
   598G11  C06D40757   6.937  10.501   6.488
   598G11  C06E40758   6.939  10.426   6.606
   598G11  C07Q40759   6.844  10.330   6.617
   598G11  C07P40760   6.757  10.311   6.509
   598G11  C07T40761   6.652  10.219   6.527
   598G11  C07U40762   6.557  10.199   6.427
   598G11  C07V40763   6.459  10.103   6.444
   598G11  C08440764   6.443  10.044   6.566
   598G11  C08C40765   6.533  10.065   6.664
   598G11  C08B40766   6.521  10.000   6.781
   598G11  C08A40767   6.619  10.018   6.876
   598G11  C08940768   6.732  10.095   6.867
   598G11  C08840769   6.838  10.088   6.959
   598G11  C08740770   6.944  10.177   6.938
   598G11  C08640771   6.948  10.264   6.827
   598G11  C08X40772   6.840  10.002   7.072
   598G11  C08T40773   6.712   9.931   7.090
   598G11  C08D40774   6.737  10.168   6.750
   598G11  C08U40775   6.614   9.945   6.991
   598G11  C08V40776   6.512   9.850   7.012
   598G11  C0CY40777   6.418   9.826   6.916
   598G11  C0CX40778   6.342   9.716   6.935
   598G11  C0CW40779   6.252   9.682   6.831
   598G11  C0CV40780   6.263   9.751   6.713
   598G11  C0D440781   6.342   9.866   6.696
   598G11  C0CU40782   6.183   9.711   6.604
   598G11  C0CT40783   6.099   9.601   6.610
   598G11  C0CS40784   6.100   9.530   6.728
   598G11  C0D640785   6.201   9.786   6.494
   598G11  C0EC40786   6.275   9.900   6.476
   598G11  C07X40787   6.278   9.979   6.361
   598G11  C0DL40788   6.111   9.762   6.394
   598G11  C0DK40789   6.101   9.840   6.283
   598G11  C0DN40790   6.007   9.785   6.206
   598G11  C0D840791   6.018   9.654   6.384
   598G11  C08W40792   6.535   9.778   7.125
   598G11  C0CQ40793   6.437   9.668   7.154
   598G11  C09340794   6.427   9.901   6.801
   598G11  C09240795   6.352   9.938   6.579
   598G11  C08540796   6.641  10.155   6.650
   598G11  C07S40797   6.844  10.253   6.726
   598G11  C06F40798   7.028  10.452   6.709
   598G11  C07O40799   6.767  10.381   6.390
   598G11  C07N40800   6.678  10.355   6.290
   598G11  C05D40801   7.019  10.607   6.480
   598G11  C05C40802   7.101  10.632   6.586
   598G11  C05N40803   7.193  10.731   6.546
   598G11  C05M40804   7.242  10.837   6.185
   598G11  C05I40805   7.165  10.838   5.961
   598G11  C06140806   7.210  10.924   5.700
   598G11  C02Q40807   7.355  11.043   5.540
   598G11  C02O40808   7.625  11.152   5.512
   598G11  C03Q40809   7.508  11.066   5.852
   598G11  C03O40810   7.649  11.043   6.041
   598G11  C03L40811   7.984  11.108   6.089
   598G11  C02S40812   7.832  11.176   5.746
   598G11  C02T40813   8.090  11.251   5.691
   598G11  C03K40814   8.126  11.135   6.057
   598G11  C03I40815   8.220  11.284   5.667
   598G11  C03G40816   8.484  11.354   5.621
   598G11  H00D40817   8.586  11.378   5.597
   598G11  C03J40818   8.388  11.214   5.988
   598G11  C03W40819   8.614  11.172   6.154
   598G11  C04I40820   8.479  11.065   6.309
   598G11  C04K40821   8.411  10.921   6.536
   598G11  C04N40822   8.369  10.865   6.654
   598G11  C04X40823   8.187  10.776   6.798
   598G11  C05040824   7.999  10.688   6.947
   598G11  C05W40825   7.819  10.795   6.756
   598G11  C05S40826   7.572  10.547   7.069
   598G11  C05R40827   7.527  10.771   6.809
   598G11  C05O40828   7.300  10.761   6.630
   598G11  C05B40829   7.111  10.553   6.701
   598G11  C05A40830   7.344  10.536   6.975
   598G11  C07R40831   7.044  10.365   6.820
   598G11  C08N40832   7.049  10.184   7.035
   598G11  C08M40833   7.057  10.087   7.141
   598G11  C08L40834   7.162  10.095   7.234
   598G11  C09140835   7.439  10.475   7.062
   598G11  C09K40836   7.402  10.419   7.400
   598G11  H00M40837   7.389  10.526   7.399
   598G11  C08K40838   7.267  10.180   7.214
   598G11  C09J40839   7.367  10.325   7.506
   598G11  C09I40840   7.306  10.326   7.640
   598G11  C09L40841   7.311  10.413   7.754
   598G11  H00N40842   7.344  10.515   7.746
   598G11  C09Q40843   7.260  10.372   7.870
   598G11  H00O40844   7.240  10.436   7.954
   598G11  O00B40845   7.207  10.240   7.891
   598G11  C09G40846   7.184  10.164   7.778
   598G11  C09F40847   7.089  10.055   7.797
   598G11  O00A40848   7.052  10.036   7.928
   598G11  C09P40849   6.916  10.005   7.938
   598G11  H00P40850   6.850  10.070   7.993
   598G11  C09O40851   6.866   9.895   7.856
   598G11  C09D40852   6.927   9.875   7.727
   598G11  C09C40853   6.895   9.778   7.622
   598G11  C09N40854   6.773   9.700   7.596
   598G11  C09T40855   6.654   9.715   7.673
   598G11  C09S40856   6.654   9.749   7.812
   598G11  C0CP40857   6.539   9.691   7.865
   598G11  C0CN40858   6.458   9.623   7.768
   598G11  C0CO40859   6.338   9.565   7.813
   598G11  H01440860   6.270   9.527   7.738
   598G11  C0CZ40861   6.323   9.562   7.951
   598G11  H01540862   6.234   9.510   7.982
   598G11  C0D040863   6.405   9.628   8.047
   598G11  C0G540864   6.388   9.636   8.192
   598G11  H01F40865   6.306   9.592   8.245
   598G11  C0G440866   6.479   9.707   8.271
   598G11  H01G40867   6.453   9.711   8.376
   598G11  O00H40868   6.593   9.772   8.227
   598G11  C0D240869   6.600   9.778   8.091
   598G11  C09V40870   6.710   9.843   8.038
   598G11  H00Q40871   6.779   9.895   8.102
   598G11  C0D140872   6.515   9.704   8.003
   598G11  C09R40873   6.742   9.826   7.898
   598G11  C09H40874   7.248  10.196   7.656
   598G11  C09E40875   7.043   9.958   7.700
   598G11  C09B40876   6.960   9.759   7.500
   598G11  C08Z40877   7.139  10.009   7.347
   598G11  C08O40878   6.952   9.986   7.152
   598G11  C09A40879   6.882   9.694   7.399
   598G11  C08S40880   6.657   9.835   7.177
   598G11  C09940881   6.771   9.649   7.458
   598G11  C09U40882   6.528   9.638   7.646
   598G11  C0BO40883   6.275   9.294   7.406
   598G11  C0CL40884   6.434   9.606   7.279
   598G11  C0D340885   6.344   9.638   7.054
   598G11  C0D540886   6.178   9.565   6.841
   598G11  C0BR40887   6.187   9.338   7.187
   598G11  C0BQ40888   6.200   9.256   7.295
   598G11  C0BL40889   6.196   9.107   7.532
   598G11  C0AF40890   6.041   8.882   7.548
   598G11  C0BH40891   5.966   8.986   7.205
   598G11  C0BG40892   5.874   8.953   7.107
   598G11  C0BD40893   5.807   8.757   7.226
   598G11  C0AG40894   5.972   8.764   7.544
   598G11  C0AI40895   5.871   8.596   7.697
   598G11  C0AV40896   5.665   8.437   7.742
   598G11  C0BB40897   5.653   8.472   7.383
   598G11  O00C40898   5.471   8.306   7.637
   598G11  C0BC40899   5.562   8.428   7.302
   598G11  C0B940900   5.723   8.645   7.239
   598G11  O00E40901   5.531   8.669   6.927
   598G11  C0CA40902   5.517   8.734   6.819
   598G11  O00F40903   5.459   8.683   6.718
   598G11  C0BF40904   5.795   8.840   7.117
   598G11  C0C540905   5.593   8.857   6.811
   598G11  C0C440906   5.591   8.934   6.686
   598G11  H01140907   5.527   8.906   6.604
   598G11  C0C840908   5.868   9.035   6.994
   598G11  C0C240909   5.679   9.046   6.677
   598G11  C0C340910   5.700   9.117   6.559
   598G11  C0DY40911   5.643   9.089   6.442
   598G11  H01640912   5.570   9.014   6.413
   598G11  C0DX40913   5.697   9.183   6.350
   598G11  C0DW40914   5.690   9.151   6.213
   598G11  C0BY40915   5.936   9.232   6.872
   598G11  C0DB40916   5.791   9.218   6.543
   598G11  C0CC40917   6.020   9.418   6.740
   598G11  C0D740918   6.016   9.564   6.502
   598G11  C0DZ40919   5.784   9.280   6.417
   598G11  C0DM40920   5.947   9.673   6.265
   598G11  C0DQ40921   5.761   9.387   6.134
   598G11  C0DV40922   5.716   9.254   6.121
   598G11  C0E040923   5.637   9.035   6.136
   598G11  C0FO40924   5.416   9.101   5.865
   598G11  C0E340925   5.508   8.961   6.165
   598G11  H01740926   5.476   8.928   6.263
   598G11  C0GV40927   5.291   9.056   5.904
   598G11  C0ES40928   5.425   9.225   5.799
   598G11  C0GQ40929   5.064   9.268   5.724
   598G11  C0FJ40930   5.179   9.557   5.534
   598G11  C0ED40931   5.425   9.485   5.665
   598G11  C0ER40932   5.550   9.648   5.407
   598G11  C0EP40933   5.732   9.752   5.509
   598G11  C0E640934   5.648   9.515   5.786
   598G11  C0DE40935   5.831   9.708   5.957
   598G11  C0EA40936   5.917   9.896   5.624
   598G11  C0DF40937   5.903   9.826   5.986
   598G11  C08040938   6.111  10.080   5.838
   598G11  C0DO40939   6.004   9.848   6.081
   598G11  C0DJ40940   6.188   9.949   6.263
   598G11  C07K40941   6.313  10.178   5.995
   598G11  C07W40942   6.370  10.077   6.343
   598G11  C08340943   6.571  10.272   6.310
   598G11  C07J40944   6.419  10.271   5.975
   598G11  C06O40945   6.635  10.451   5.941
   598G11  C06M40946   6.696  10.419   6.165
   608G11  C07140947   2.605   5.811   7.717
   608G11  C07L40948   2.598   5.950   7.751
   608G11  C07M40949   2.664   6.046   7.673
   608G11  C07Y40950   2.645   6.189   7.693
   608G11  C08140951   2.569   6.240   7.799
   608G11  C08240952   2.564   6.381   7.826
   608G11  C0DI40953   2.491   6.461   7.929
   608G11  C0DH40954   2.402   6.419   8.038
   608G11  C0DG40955   2.355   6.534   8.108
   608G11  C0E940956   2.225   6.578   8.149
   608G11  C0E840957   2.229   6.726   8.141
   608G11  C0E740958   2.164   6.831   8.231
   608G11  C0EB40959   2.070   6.787   8.335
   608G11  C0EF40960   2.022   6.857   8.450
   608G11  C0EE40961   2.081   6.965   8.525
   608G11  C0FD40962   2.073   6.966   8.670
   608G11  C0FE40963   2.015   6.865   8.758
   608G11  H01B40964   1.964   6.783   8.710
   608G11  C0FF40965   2.035   6.863   8.895
   608G11  H01A40966   1.999   6.783   8.959
   608G11  C0FG40967   2.095   6.976   8.957
   608G11  H01840968   2.099   6.981   9.065
   608G11  C0FH40969   2.151   7.075   8.880
   608G11  C0FI40970   2.207   7.194   8.939
   608G11  H01940971   2.221   7.203   9.045
   608G11  O00K40972   2.252   7.298   8.867
   608G11  C0FL40973   2.234   7.298   8.732
   608G11  C0FK40974   2.177   7.185   8.661
   608G11  C0FM40975   2.162   7.189   8.523
   608G11  C0FN40976   2.184   7.310   8.456
   608G11  C0FP40977   2.223   7.423   8.533
   608G11  C0GO40978   2.241   7.546   8.471
   608G11  C0GN40979   2.295   7.661   8.529
   608G11  C0GR40980   2.325   7.648   8.668
   608G11  C0GS40981   2.369   7.757   8.743
   608G11  H01Q40982   2.390   7.757   8.849
   608G11  C0GT40983   2.398   7.876   8.674
   608G11  H01O40984   2.435   7.958   8.734
   608G11  C0GU40985   2.382   7.884   8.535
   608G11  H01P40986   2.406   7.979   8.490
   608G11  O00L40987   2.293   7.529   8.734
   608G11  C0GM40988   2.327   7.778   8.458
   608G11  C0GL40989   2.309   7.777   8.315
   608G11  H01R40990   2.332   7.862   8.253
   608G11  C0GK40991   2.254   7.665   8.255
   608G11  C0GP40992   2.224   7.613   8.121
   608G11  C0E240993   2.149   7.494   8.133
   608G11  C0E140994   2.181   7.408   8.021
   608G11  C0DU40995   2.226   7.275   8.029
   608G11  C0DT40996   2.205   7.178   8.127
   608G11  C0E440997   2.171   7.200   8.256
   608G11  C0E540998   2.156   7.077   8.316
   608G11  C0DS40999   2.225   7.046   8.105
   608G11  C0DR41000   2.289   7.011   7.985
   608G11  C0DD41001   2.342   6.881   7.950
   608G11  C0DC41002   2.421   6.906   7.830
   608G11  C0DP41003   2.401   7.037   7.781
   608G11  C0DA41004   2.442   7.101   7.657
   608G11  C0D941005   2.517   7.044   7.541
   608G11  C0CR41006   2.535   7.117   7.417
   608G11  C0C041007   2.497   7.247   7.407
   608G11  C0BZ41008   2.500   7.330   7.294
   608G11  C0C141009   2.442   7.457   7.287
   608G11  C0C741010   2.452   7.535   7.172
   608G11  C0C641011   2.376   7.653   7.158
   608G11  C0C941012   2.385   7.724   7.045
   608G11  C0B841013   2.302   7.838   7.028
   608G11  C0B741014   2.332   7.930   6.922
   608G11  C0B641015   2.267   8.056   6.885
   608G11  C0B541016   2.126   8.072   6.885
   608G11  H00Z41017   2.054   8.013   6.939
   608G11  C0B441018   2.095   8.165   6.779
   608G11  H01041019   1.999   8.185   6.735
   608G11  C0B341020   2.216   8.219   6.721
   608G11  C0AP41021   2.274   8.238   6.590
   608G11  C0AQ41022   2.401   8.176   6.598
   608G11  C0AR41023   2.463   8.123   6.483
   608G11  C0AS41024   2.535   8.013   6.509
   608G11  C0AT41025   2.547   7.937   6.627
   608G11  C0BA41026   2.478   7.981   6.733
   608G11  C0AU41027   2.599   7.810   6.633
   608G11  C0BE41028   2.579   7.732   6.744
   608G11  C0BI41029   2.628   7.598   6.735
   608G11  C0BJ41030   2.689   7.551   6.619
   608G11  C0BK41031   2.731   7.419   6.617
   608G11  C0BW41032   2.720   7.339   6.730
   608G11  C0BV41033   2.661   7.391   6.847
   608G11  C0BU41034   2.647   7.308   6.960
   608G11  C0BX41035   2.580   7.358   7.070
   608G11  C0BT41036   2.692   7.176   6.955
   608G11  C0CD41037   2.677   7.096   7.070
   608G11  C0CB41038   2.613   7.149   7.185
   608G11  C0CE41039   2.726   6.969   7.071
   608G11  C0CK41040   2.790   6.920   6.957
   608G11  C0BS41041   2.807   6.997   6.838
   608G11  C0CJ41042   2.867   6.946   6.727
   608G11  C0BP41043   2.879   7.030   6.614
   608G11  C0CI41044   2.927   6.976   6.492
   608G11  C0CH41045   2.948   7.069   6.388
   608G11  H01241046   3.002   7.036   6.301
   608G11  C0BN41047   2.882   7.193   6.376
   608G11  C0CG41048   2.872   7.266   6.261
   608G11  C0CF41049   2.909   7.208   6.134
   608G11  H01341050   2.940   7.105   6.124
   608G11  O00G41051   2.889   7.269   6.011
   608G11  C0AA41052   2.849   7.399   6.019
   608G11  C0A941053   2.840   7.466   5.897
   608G11  H00U41054   2.879   7.420   5.807
   608G11  C0A841055   2.798   7.596   5.892
   608G11  H00V41056   2.805   7.638   5.793
   608G11  C0A741057   2.740   7.657   6.005
   608G11  C0A641058   2.747   7.587   6.132
   608G11  C0A541059   2.719   7.648   6.259
   608G11  C0A441060   2.676   7.788   6.267
   608G11  C0A341061   2.652   7.900   6.184
   608G11  C0A241062   2.622   7.888   6.048
   608G11  C0A141063   2.581   7.994   5.965
   608G11  C0A041064   2.501   8.118   5.985
   608G11  C09Z41065   2.468   8.181   5.862
   608G11  C09Y41066   2.364   8.277   5.864
   608G11  H00Y41067   2.338   8.328   5.772
   608G11  C09X41068   2.311   8.318   5.985
   608G11  C09W41069   2.209   8.410   5.971
   608G11  H00R41070   2.179   8.435   5.871
   608G11  C0AX41071   2.149   8.469   6.085
   608G11  H00S41072   2.065   8.537   6.081
   608G11  C0AW41073   2.180   8.420   6.211
   608G11  H00T41074   2.139   8.455   6.304
   608G11  C0AN41075   2.281   8.319   6.229
   608G11  C0AO41076   2.321   8.267   6.354
   608G11  C0AM41077   2.349   8.272   6.113
   608G11  C0B241078   2.520   8.152   5.730
   608G11  O00D41079   2.503   8.214   5.626
   608G11  C0B141080   2.605   8.037   5.713
   608G11  H00W41081   2.620   7.999   5.613
   608G11  C0AL41082   2.447   8.165   6.112
   608G11  C0AK41083   2.487   8.118   6.239
   608G11  C0B041084   2.623   7.965   5.837
   608G11  C0AZ41085   2.696   7.840   5.840
   608G11  H00X41086   2.746   7.814   5.748
   608G11  C0AJ41087   2.583   8.003   6.265
   608G11  C0AH41088   2.647   7.826   6.395
   608G11  C0AE41089   2.728   7.576   6.382
   608G11  C0AD41090   2.780   7.448   6.379
   608G11  C0AY41091   2.681   7.781   5.970
   608G11  C0AB41092   2.805   7.462   6.137
   608G11  C0AC41093   2.823   7.395   6.257
   608G11  C0BM41094   2.837   7.239   6.497
   608G11  C0CM41095   2.955   6.839   6.481
   608G11  C09M41096   2.982   6.767   6.600
   608G11  C09841097   3.071   6.657   6.583
   608G11  C08R41098   3.088   6.537   6.664
   608G11  C08Q41099   3.182   6.442   6.615
   608G11  C08P41100   3.199   6.296   6.608
   608G11  C08Y41101   3.253   6.245   6.490
   608G11  C09741102   3.279   6.321   6.375
   608G11  C09641103   3.257   6.248   6.259
   608G11  C09041104   3.246   6.113   6.300
   608G11  C09541105   3.210   6.001   6.222
   608G11  C09441106   3.217   5.866   6.256
   608G11  C08J41107   3.222   5.806   6.385
   608G11  C08I41108   3.137   5.693   6.385
   608G11  C08H41109   3.095   5.661   6.518
   608G11  C08G41110   3.121   5.780   6.592
   608G11  C08F41111   3.108   5.827   6.732
   608G11  C08E41112   3.083   5.735   6.836
   608G11  C05941113   3.093   5.592   6.826
   608G11  C05841114   3.065   5.511   6.939
   608G11  C05741115   3.074   5.373   6.937
   608G11  C05641116   3.120   5.314   6.819
   608G11  C05541117   3.181   5.389   6.719
   608G11  C05441118   3.176   5.305   6.604
   608G11  C05341119   3.116   5.174   6.643
   608G11  C05241120   3.079   5.066   6.555
   608G11  C05141121   3.079   5.081   6.410
   608G11  C05U41122   3.098   5.197   6.329
   608G11  C05T41123   3.112   5.339   6.364
   608G11  C06K41124   3.180   5.392   6.249
   608G11  H00J41125   3.225   5.490   6.249
   608G11  C06L41126   3.180   5.304   6.136
   608G11  H00I41127   3.219   5.327   6.037
   608G11  C05V41128   3.135   5.179   6.190
   608G11  C06J41129   3.129   5.064   6.120
   608G11  H00K41130   3.163   5.054   6.019
   608G11  C05X41131   3.067   4.954   6.188
   608G11  C06I41132   3.024   4.831   6.121
   608G11  H00L41133   3.034   4.827   6.013
   608G11  C04Z41134   2.980   4.718   6.191
   608G11  C06H41135   2.944   4.601   6.117
   608G11  H00H41136   2.963   4.594   6.011
   608G11  C04Y41137   2.889   4.493   6.188
   608G11  C06G41138   2.847   4.384   6.108
   608G11  O00941139   2.842   4.373   5.987
   608G11  O00841140   2.803   4.269   6.178
   608G11  C04P41141   2.775   4.271   6.314
   608G11  C04J41142   2.720   4.162   6.393
   608G11  C04Q41143   2.693   4.035   6.356
   608G11  H00E41144   2.712   4.016   6.251
   608G11  C04M41145   2.645   3.932   6.438
   608G11  C04R41146   2.636   3.798   6.406
   608G11  H00F41147   2.652   3.765   6.305
   608G11  C04S41148   2.590   3.712   6.501
   608G11  H00G41149   2.598   3.607   6.477
   608G11  O00741150   2.554   3.737   6.632
   608G11  C03V41151   2.558   3.873   6.663
   608G11  C03U41152   2.511   3.917   6.789
   608G11  O00641153   2.454   3.818   6.867
   608G11  C03F41154   2.401   3.864   6.985
   608G11  C03E41155   2.412   3.997   7.035
   608G11  C03D41156   2.498   4.083   6.969
   608G11  C03C41157   2.527   4.206   7.019
   608G11  C03B41158   2.466   4.236   7.142
   608G11  C03A41159   2.511   4.348   7.212
   608G11  C03941160   2.612   4.430   7.152
   608G11  C03841161   2.622   4.538   7.257
   608G11  C03741162   2.523   4.498   7.355
   608G11  C03641163   2.492   4.582   7.458
   608G11  C02R41164   2.388   4.570   7.545
   608G11  C03541165   2.397   4.695   7.610
   608G11  C03R41166   2.503   4.774   7.577
   608G11  C03S41167   2.513   4.911   7.599
   608G11  C04941168   2.596   4.975   7.521
   608G11  C04841169   2.668   4.898   7.423
   608G11  C03P41170   2.650   4.758   7.379
   608G11  C04741171   2.752   4.981   7.351
   608G11  C04641172   2.828   4.947   7.235
   608G11  C04541173   2.845   4.824   7.165
   608G11  C03T41174   2.782   4.700   7.177
   608G11  C04441175   2.807   4.623   7.056
   608G11  C04341176   2.909   4.689   6.989
   608G11  C04241177   2.902   4.667   6.847
   608G11  C04141178   2.798   4.558   6.845
   608G11  C04041179   2.771   4.476   6.733
   608G11  C03Z41180   2.718   4.343   6.733
   608G11  C04H41181   2.723   4.305   6.592
   608G11  C04G41182   2.785   4.404   6.515
   608G11  C03N41183   2.655   4.252   6.816
   608G11  C03Y41184   2.606   4.131   6.759
   608G11  C03X41185   2.637   4.094   6.622
   608G11  C04F41186   2.818   4.510   6.599
   608G11  C04E41187   2.889   4.618   6.538
   608G11  C04O41188   2.905   4.621   6.397
   608G11  C04D41189   2.943   4.729   6.600
   608G11  C04V41190   3.004   4.838   6.532
   608G11  C04W41191   3.005   4.844   6.394
   608G11  C04C41192   2.966   4.750   6.738
   608G11  C04L41193   3.022   4.884   6.748
   608G11  C04U41194   3.038   4.954   6.873
   608G11  C05Q41195   3.065   5.091   6.875
   608G11  C05P41196   3.031   5.149   6.999
   608G11  C04T41197   2.967   5.049   7.072
   608G11  C04B41198   2.972   4.932   6.995
   608G11  C03M41199   2.749   4.519   6.972
   608G11  C04A41200   2.920   4.816   7.050
   608G11  C05H41201   2.903   5.061   7.197
   608G11  C05G41202   2.864   5.165   7.284
   608G11  C05F41203   2.901   5.298   7.262
   608G11  C05E41204   2.857   5.415   7.336
   608G11  C05L41205   2.771   5.445   7.447
   608G11  C05K41206   2.693   5.344   7.508
   608G11  C05J41207   2.692   5.203   7.479
   608G11  C06641208   2.604   5.401   7.604
   608G11  C06541209   2.607   5.533   7.648
   608G11  C06441210   2.687   5.629   7.584
   608G11  C06N41211   2.526   5.587   7.750
   608G11  C06941212   2.434   5.498   7.808
   608G11  C06P41213   2.334   5.543   7.896
   608G11  C06R41214   2.232   5.463   7.946
   608G11  C06B41215   2.231   5.334   7.909
   608G11  C06S41216   2.127   5.251   7.953
   608G11  C02G41217   2.127   5.118   7.923
   608G11  C02F41218   2.027   5.036   7.971
   608G11  C02741219   1.918   5.090   8.038
   608G11  C02641220   1.811   5.017   8.071
   608G11  C00E41221   1.708   5.069   8.141
   608G11  C00D41222   1.601   4.987   8.176
   608G11  C00C41223   1.494   5.044   8.246
   608G11  C00B41224   1.483   5.170   8.286
   608G11  C01541225   1.592   5.249   8.251
   608G11  C07F41226   1.585   5.389   8.265
   608G11  C07E41227   1.692   5.470   8.226
   608G11  C06W41228   1.806   5.405   8.171
   608G11  C06V41229   1.808   5.273   8.142
   608G11  C06X41230   1.911   5.491   8.132
   608G11  C07B41231   1.904   5.628   8.151
   608G11  C07C41232   1.790   5.682   8.213
   608G11  C0FU41233   1.785   5.824   8.234
   608G11  C0F741234   1.668   5.880   8.284
   608G11  C0F641235   1.663   6.019   8.306
   608G11  C0F841236   1.546   6.080   8.355
   608G11  C0F941237   1.544   6.215   8.379
   608G11  C0FA41238   1.430   6.272   8.433
   608G11  C0FZ41239   1.321   6.191   8.461
   608G11  C0G041240   1.204   6.251   8.509
   608G11  C0GD41241   1.194   6.388   8.535
   608G11  C0FC41242   1.307   6.465   8.516
   608G11  C0GH41243   1.300   6.604   8.529
   608G11  C0EY41244   1.416   6.680   8.521
   608G11  C0EX41245   1.417   6.816   8.560
   608G11  C0EW41246   1.542   6.881   8.573
   608G11  C0FR41247   1.550   7.010   8.636
   608G11  H01D41248   1.641   7.068   8.640
   608G11  C0FS41249   1.426   7.077   8.666
   608G11  H01C41250   1.435   7.177   8.707
   608G11  C0GJ41251   1.304   7.013   8.634
   608G11  H01N41252   1.213   7.058   8.672
   608G11  C0EV41253   1.652   6.812   8.531
   608G11  C0FT41254   1.782   6.874   8.547
   608G11  H01E41255   1.808   6.961   8.606
   608G11  C0EU41256   1.650   6.688   8.464
   608G11  C0ET41257   1.762   6.628   8.408
   608G11  C0EI41258   1.772   6.496   8.361
   608G11  C0F141259   1.653   6.422   8.373
   608G11  C0F041260   1.535   6.484   8.429
   608G11  C0EH41261   1.894   6.456   8.298
   608G11  C0EG41262   2.003   6.540   8.264
   608G11  C0EJ41263   1.894   6.320   8.266
   608G11  C0F341264   1.776   6.237   8.292
   608G11  C0EK41265   2.005   6.262   8.209
   608G11  C0EL41266   2.117   6.345   8.172
   608G11  C0EM41267   2.219   6.272   8.105
   608G11  C0EN41268   2.215   6.136   8.095
   608G11  C07I41269   2.322   6.080   8.025
   608G11  C07441270   2.327   5.941   7.994
   608G11  C07341271   2.429   5.900   7.910
   608G11  C07241272   2.429   5.767   7.875
   608G11  C07541273   2.218   5.863   8.032
   608G11  C07641274   2.115   5.919   8.107
   608G11  C07841275   2.003   5.842   8.145
   608G11  C07G41276   2.223   5.728   8.002
   608G11  C07041277   2.121   5.646   8.053
   608G11  C07Z41278   2.402   6.181   7.973
   608G11  C07741279   2.110   6.058   8.141
   608G11  C0EO41280   2.000   6.124   8.188
   608G11  C0F441281   1.890   6.045   8.222
   608G11  C0EQ41282   1.881   6.700   8.410
   608G11  C0FQ41283   1.297   6.879   8.586
   608G11  C0GI41284   1.180   6.802   8.571
   608G11  H01L41285   1.089   6.859   8.585
   608G11  C0EZ41286   1.533   6.619   8.470
   608G11  C0GG41287   1.175   6.662   8.563
   608G11  C0GF41288   1.059   6.585   8.585
   608G11  H01M41289   0.967   6.630   8.619
   608G11  C0GE41290   1.076   6.448   8.580
   608G11  H01K41291   0.983   6.395   8.600
   608G11  O00J41292   1.100   6.172   8.555
   608G11  C0GA41293   1.116   6.037   8.552
   608G11  C0G941294   1.010   5.959   8.588
   608G11  H01H41295   0.926   6.018   8.620
   608G11  C0G841296   1.003   5.820   8.567
   608G11  C0G741297   0.897   5.739   8.607
   608G11  H01I41298   0.816   5.787   8.660
   608G11  O00I41299   0.884   5.608   8.579
   608G11  C0G641300   0.993   5.547   8.526
   608G11  H01J41301   0.979   5.441   8.516
   608G11  C02D41302   1.112   5.621   8.483
   608G11  C02C41303   1.228   5.559   8.427
   608G11  C01741304   1.237   5.416   8.404
   608G11  C01641305   1.361   5.357   8.357
   608G11  O00141306   1.139   5.330   8.441
   608G11  C01841307   1.133   5.196   8.410
   608G11  C00941308   1.249   5.145   8.355
   608G11  C00841309   1.260   5.007   8.310
   608G11  C00741310   1.170   4.892   8.292
   608G11  C00641311   1.041   4.887   8.340
   608G11  C00541312   0.957   4.768   8.323
   608G11  C00441313   0.983   4.637   8.259
   608G11  C00341314   1.098   4.579   8.196
   608G11  C00241315   1.093   4.451   8.130
   608G11  C00P41316   1.204   4.398   8.061
   608G11  C00O41317   1.198   4.274   7.988
   608G11  C00N41318   1.307   4.213   7.922
   608G11  C01041319   1.303   4.086   7.871
   608G11  C01141320   1.414   4.021   7.820
   608G11  C01Q41321   1.407   3.885   7.777
   608G11  C01U41322   1.291   3.813   7.790
   608G11  C01241323   1.175   3.879   7.840
   608G11  H00041324   1.084   3.821   7.848
   608G11  C01V41325   1.300   3.676   7.752
   608G11  H00741326   1.213   3.612   7.762
   608G11  O00541327   1.410   3.617   7.706
   608G11  C01W41328   1.530   3.686   7.712
   608G11  C03141329   1.647   3.617   7.679
   608G11  C03241330   1.771   3.683   7.691
   608G11  H00A41331   1.860   3.624   7.680
   608G11  C03341332   1.771   3.823   7.727
   608G11  H00B41333   1.866   3.874   7.741
   608G11  C01O41334   1.651   3.895   7.733
   608G11  C01N41335   1.648   4.034   7.744
   608G11  C01M41336   1.763   4.127   7.701
   608G11  C01L41337   1.897   4.147   7.626
   608G11  C01K41338   1.944   4.272   7.665
   608G11  C01Y41339   2.061   4.343   7.626
   608G11  C02I41340   2.140   4.288   7.529
   608G11  C02N41341   2.257   4.360   7.497
   608G11  C02M41342   2.336   4.314   7.390
   608G11  C02L41343   2.304   4.193   7.328
   608G11  C02K41344   2.195   4.116   7.373
   608G11  C02U41345   2.181   3.987   7.322
   608G11  C02V41346   2.265   3.940   7.220
   608G11  C03H41347   2.265   3.803   7.171
   608G11  H00C41348   2.223   3.719   7.225
   608G11  C02W41349   2.075   3.905   7.367
   608G11  C02X41350   1.988   3.958   7.462
   608G11  C02Y41351   1.876   3.873   7.451
   608G11  H00841352   1.778   3.885   7.495
   608G11  C02Z41353   1.912   3.752   7.375
   608G11  O00441354   1.852   3.645   7.367
   608G11  O00341355   2.027   3.787   7.310
   608G11  C02J41356   2.110   4.163   7.482
   608G11  C01Z41357   2.076   4.464   7.683
   608G11  C02041358   1.977   4.523   7.766
   608G11  C01I41359   1.866   4.457   7.801
   608G11  C01H41360   1.760   4.509   7.864
   608G11  C00K41361   1.648   4.434   7.885
   608G11  C01S41362   1.640   4.304   7.840
   608G11  C01441363   1.531   4.226   7.859
   608G11  C00J41364   1.543   4.485   7.962
   608G11  C00I41365   1.562   4.603   8.026
   608G11  C00H41366   1.677   4.681   8.002
   608G11  C00G41367   1.689   4.807   8.055
   608G11  C00S41368   1.458   4.656   8.098
   608G11  C00T41369   1.477   4.779   8.150
   608G11  C00U41370   1.376   4.833   8.225
   608G11  C00R41371   1.334   4.591   8.117
   608G11  C00L41372   1.430   4.408   7.986
   608G11  C02841373   1.774   4.635   7.914
   608G11  C02341374   1.894   4.706   7.897
   608G11  C02441375   1.908   4.831   7.954
   608G11  C02141376   1.989   4.651   7.816
   608G11  C02241377   2.099   4.727   7.787
   608G11  C02H41378   2.115   4.854   7.842
   608G11  C03041379   2.220   4.938   7.809
   608G11  C03441380   2.315   4.885   7.735
   608G11  C02P41381   2.193   4.674   7.704
   608G11  C02B41382   2.182   4.542   7.650
   608G11  C01J41383   1.856   4.332   7.745
   608G11  C01X41384   1.989   4.083   7.527
   608G11  C01T41385   1.748   4.252   7.763
   608G11  H00941386   1.636   3.513   7.653
   608G11  C01P41387   1.529   3.820   7.746
   608G11  C01R41388   1.535   4.096   7.806
   608G11  C00Z41389   1.179   4.015   7.880
   608G11  O00041390   1.069   4.074   7.937
   608G11  C00M41391   1.424   4.281   7.928
   608G11  C00Y41392   1.080   4.203   7.992
   608G11  C01341393   0.971   4.259   8.057
   608G11  H00141394   0.884   4.196   8.043
   608G11  C00Q41395   1.324   4.465   8.058
   608G11  C00141396   0.973   4.377   8.135
   608G11  C00041397   0.867   4.427   8.211
   608G11  H00641398   0.784   4.359   8.228
   608G11  C00W41399   1.228   4.650   8.182
   608G11  C01G41400   0.873   4.551   8.271
   608G11  H00541401   0.781   4.580   8.320
   608G11  C01C41402   0.838   4.804   8.399
   608G11  H00241403   0.746   4.752   8.420
   608G11  C01B41404   0.855   4.936   8.445
   608G11  C01D41405   0.756   5.013   8.512
   608G11  H00341406   0.662   4.968   8.537
   608G11  C01E41407   0.786   5.142   8.545
   608G11  H00441408   0.711   5.186   8.609
   608G11  O00241409   0.910   5.203   8.517
   608G11  C01A41410   0.984   4.994   8.417
   608G11  C00V41411   1.245   4.783   8.233
   608G11  C01941412   1.013   5.130   8.454
   608G11  C02E41413   1.345   5.635   8.401
   608G11  C0FX41414   1.339   5.771   8.427
   608G11  C0FW41415   1.448   5.855   8.389
   608G11  C0GB41416   1.225   5.832   8.475
   608G11  C0G341417   1.461   5.580   8.345
   608G11  C07H41418   1.567   5.664   8.309
   608G11  C0GC41419   1.115   5.757   8.511
   608G11  C0G241420   1.226   5.974   8.485
   608G11  C0G141421   1.329   6.050   8.447
   608G11  C0FB41422   1.421   6.409   8.454
   608G11  C0F241423   1.656   6.292   8.342
   608G11  C0FY41424   1.441   5.992   8.399
   608G11  C0F541425   1.770   6.101   8.270
   608G11  C0FV41426   1.561   5.801   8.326
   608G11  C07941427   1.893   5.903   8.202
   608G11  C07A41428   2.008   5.705   8.115
   608G11  C06Y41429   2.017   5.437   8.059
   608G11  C07D41430   1.680   5.606   8.242
   608G11  C01F41431   1.468   5.442   8.324
   608G11  C00A41432   1.365   5.221   8.339
   608G11  C00X41433   1.387   4.965   8.270
   608G11  C00F41434   1.592   4.860   8.130
   608G11  C02941435   1.705   5.196   8.184
   608G11  C02541436   1.805   4.883   8.033
   608G11  C06U41437   1.917   5.222   8.071
   608G11  C02A41438   2.019   4.905   7.925
   608G11  C05Y41439   2.228   5.072   7.847
   608G11  C05Z41440   2.330   5.152   7.795
   608G11  C06041441   2.424   5.099   7.711
   608G11  C06241442   2.514   5.178   7.642
   608G11  C06T41443   2.017   5.304   8.027
   608G11  C06A41444   2.333   5.281   7.827
   608G11  C06Z41445   2.121   5.512   8.020
   608G11  C06Q41446   2.332   5.679   7.929
   608G11  C06841447   2.433   5.365   7.772
   608G11  C06741448   2.519   5.316   7.670
   608G11  C06341449   2.761   5.587   7.476
   608G11  C06C41450   2.822   5.686   7.396
   608G11  C06D41451   2.900   5.659   7.289
   608G11  C06E41452   2.945   5.744   7.190
   608G11  C07Q41453   2.929   5.872   7.214
   608G11  C07P41454   2.865   5.914   7.328
   608G11  C07T41455   2.856   6.047   7.355
   608G11  C07U41456   2.791   6.091   7.472
   608G11  C07V41457   2.775   6.231   7.492
   608G11  C08441458   2.813   6.318   7.393
   608G11  C08C41459   2.870   6.276   7.277
   608G11  C08B41460   2.896   6.367   7.178
   608G11  C08A41461   2.954   6.317   7.059
   608G11  C08941462   2.979   6.186   7.035
   608G11  C08841463   3.029   6.144   6.909
   608G11  C08741464   3.049   6.010   6.884
   608G11  C08641465   3.020   5.920   6.990
   608G11  C08X41466   3.059   6.238   6.808
   608G11  C08T41467   3.007   6.375   6.829
   608G11  C08D41468   2.945   6.096   7.134
   608G11  C08U41469   2.960   6.407   6.953
   608G11  C08V41470   2.924   6.535   6.965
   608G11  C0CY41471   2.871   6.585   7.080
   608G11  C0CX41472   2.821   6.715   7.071
   608G11  C0CW41473   2.763   6.767   7.188
   608G11  C0CV41474   2.748   6.677   7.302
   608G11  C0D441475   2.800   6.547   7.298
   608G11  C0CU41476   2.676   6.722   7.407
   608G11  C0CT41477   2.630   6.858   7.416
   608G11  C0CS41478   2.648   6.943   7.306
   608G11  C0D641479   2.663   6.634   7.507
   608G11  C0EC41480   2.706   6.499   7.509
   608G11  C07X41481   2.687   6.419   7.617
   608G11  C0DL41482   2.617   6.686   7.622
   608G11  C0DK41483   2.598   6.605   7.732
   608G11  C0DN41484   2.535   6.680   7.827
   608G11  C0D841485   2.561   6.818   7.640
   608G11  C08W41486   2.942   6.602   6.842
   608G11  C0CQ41487   2.898   6.741   6.840
   608G11  C09341488   2.859   6.500   7.182
   608G11  C09241489   2.776   6.456   7.402
   608G11  C08541490   2.895   6.140   7.256
   608G11  C07S41491   2.965   5.961   7.113
   608G11  C06F41492   3.003   5.701   7.073
   608G11  C07O41493   2.815   5.824   7.419
   608G11  C07N41494   2.750   5.863   7.535
   608G11  C05D41495   2.912   5.521   7.266
   608G11  C05C41496   2.979   5.484   7.156
   608G11  C05N41497   2.975   5.345   7.149
   608G11  C05M41498   2.772   5.125   7.382
   608G11  C05I41499   2.599   5.119   7.541
   608G11  C06141500   2.417   4.965   7.684
   608G11  C02Q41501   2.297   4.756   7.684
   608G11  C02O41502   2.276   4.490   7.557
   608G11  C03Q41503   2.558   4.704   7.471
   608G11  C03O41504   2.686   4.668   7.272
   608G11  C03L41505   2.659   4.418   7.019
   608G11  C02S41506   2.452   4.387   7.332
   608G11  C02T41507   2.371   4.155   7.208
   608G11  C03K41508   2.618   4.294   6.947
   608G11  C03I41509   2.346   4.031   7.152
   608G11  C03G41510   2.333   3.769   7.051
   608G11  H00D41511   2.333   3.670   7.007
   608G11  C03J41512   2.538   4.044   6.841
   608G11  C03W41513   2.611   3.969   6.571
   608G11  C04I41514   2.690   4.182   6.529
   608G11  C04K41515   2.815   4.389   6.381
   608G11  C04N41516   2.871   4.501   6.322
   608G11  C04X41517   2.960   4.728   6.327
   608G11  C05041518   3.050   4.963   6.333
   608G11  C05W41519   3.033   4.943   6.616
   608G11  C05S41520   3.129   5.393   6.503
   608G11  C05R41521   3.105   5.179   6.784
   608G11  C05O41522   3.026   5.285   7.032
   608G11  C05B41523   3.031   5.570   7.054
   608G11  C05A41524   3.129   5.517   6.710
   608G11  C07R41525   3.046   5.784   6.967
   608G11  C08N41526   3.101   5.966   6.758
   608G11  C08M41527   3.140   6.058   6.663
   608G11  C08L41528   3.194   6.011   6.541
   608G11  C09141529   3.111   5.532   6.569
   608G11  C09K41530   3.053   5.701   6.263
   608G11  H00M41531   2.959   5.648   6.254
   608G11  C08K41532   3.187   5.873   6.507
   608G11  C09J41533   3.132   5.790   6.170
   608G11  C09I41534   3.103   5.871   6.060
   608G11  C09L41535   3.034   5.848   5.932
   608G11  H00N41536   2.989   5.754   5.905
   608G11  C09Q41537   3.026   5.958   5.855
   608G11  H00O41538   2.973   5.946   5.762
   608G11  O00B41539   3.076   6.084   5.882
   608G11  C09G41540   3.141   6.104   5.998
   608G11  C09F41541   3.181   6.245   6.011
   608G11  O00A41542   3.164   6.325   5.897
   608G11  C09P41543   3.208   6.453   5.907
   608G11  H00P41544   3.299   6.482   5.856
   608G11  C09O41545   3.172   6.526   6.025
   608G11  C09D41546   3.204   6.455   6.142
   608G11  C09C41547   3.210   6.516   6.281
   608G11  C09N41548   3.160   6.638   6.336
   608G11  C09T41549   3.053   6.702   6.272
   608G11  C09S41550   3.026   6.704   6.128
   608G11  C0CP41551   2.908   6.781   6.121
   608G11  C0CN41552   2.852   6.821   6.244
   608G11  C0CO41553   2.731   6.891   6.245
   608G11  H01441554   2.685   6.922   6.338
   608G11  C0CZ41555   2.678   6.922   6.120
   608G11  H01541556   2.594   6.990   6.122
   608G11  C0D041557   2.738   6.888   5.995
   608G11  C0G541558   2.685   6.924   5.859
   608G11  H01F41559   2.594   6.982   5.854
   608G11  C0G441560   2.755   6.882   5.753
   608G11  H01G41561   2.711   6.920   5.661
   608G11  O00H41562   2.870   6.804   5.751
   608G11  C0D241563   2.916   6.774   5.874
   608G11  C09V41564   3.039   6.697   5.887
   608G11  H00Q41565   3.083   6.659   5.795
   608G11  C0D141566   2.856   6.816   5.997
   608G11  C09R41567   3.087   6.644   6.015
   608G11  C09H41568   3.159   6.002   6.092
   608G11  C09E41569   3.218   6.310   6.133
   608G11  C09B41570   3.262   6.452   6.388
   608G11  C08Z41571   3.235   6.112   6.446
   608G11  C08O41572   3.133   6.200   6.692
   608G11  C09A41573   3.246   6.519   6.510
   608G11  C08S41574   2.996   6.502   6.762
   608G11  C09941575   3.173   6.631   6.483
   608G11  C09U41576   2.953   6.790   6.343
   608G11  C0BO41577   2.836   7.162   6.616
   608G11  C0CL41578   2.914   6.812   6.720
   608G11  C0D341579   2.834   6.790   6.954
   608G11  C0D541580   2.708   6.891   7.187
   608G11  C0BR41581   2.760   7.128   6.839
   608G11  C0BQ41582   2.778   7.212   6.730
   608G11  C0BL41583   2.784   7.368   6.500
   608G11  C0AF41584   2.695   7.625   6.505
   608G11  C0BH41585   2.607   7.517   6.845
   608G11  C0BG41586   2.533   7.562   6.954
   608G11  C0BD41587   2.504   7.778   6.850
   608G11  C0AG41588   2.650   7.753   6.518
   608G11  C0AI41589   2.591   7.953   6.396
   608G11  C0AV41590   2.426   8.168   6.355
   608G11  C0BB41591   2.414   8.106   6.721
   608G11  O00C41592   2.240   8.286   6.467
   608G11  C0BC41593   2.319   8.159   6.805
   608G11  C0B941594   2.441   7.901   6.839
   608G11  O00E41595   2.213   7.874   7.126
   608G11  C0CA41596   2.215   7.820   7.241
   608G11  O00F41597   2.134   7.871   7.321
   608G11  C0BF41598   2.473   7.688   6.947
   608G11  C0C541599   2.301   7.703   7.262
   608G11  C0C441600   2.304   7.640   7.390
   608G11  H01141601   2.240   7.674   7.470
   608G11  C0C841602   2.522   7.484   7.064
   608G11  C0C241603   2.379   7.515   7.395
   608G11  C0C341604   2.391   7.437   7.512
   608G11  C0DY41605   2.342   7.473   7.642
   608G11  H01641606   2.298   7.560   7.687
   608G11  C0DX41607   2.367   7.354   7.713
   608G11  C0DW41608   2.324   7.365   7.850
   608G11  C0BY41609   2.563   7.279   7.180
   608G11  C0DB41610   2.443   7.310   7.520
   608G11  C0CC41611   2.602   7.069   7.304
   608G11  C0D741612   2.567   6.908   7.530
   608G11  C0DZ41613   2.425   7.243   7.641
   608G11  C0DM41614   2.513   6.814   7.774
   608G11  C0DQ41615   2.328   7.105   7.883
   608G11  C0DV41616   2.297   7.241   7.914
   608G11  C0E041617   2.263   7.478   7.932
   608G11  C0FO41618   2.163   7.450   8.266
   608G11  C0E341619   2.311   7.596   8.005
   608G11  H01741620   2.409   7.638   7.991
   608G11  C0GV41621   2.211   7.556   8.338
   608G11  C0ES41622   2.161   7.323   8.326
   608G11  C0GQ41623   2.255   7.416   8.667
   608G11  C0FJ41624   2.140   7.073   8.737
   608G11  C0ED41625   2.129   7.072   8.456
   608G11  C0ER41626   1.886   6.815   8.476
   608G11  C0EP41627   1.990   6.667   8.331
   608G11  C0E641628   2.190   6.975   8.220
   608G11  C0DE41629   2.341   6.769   8.051
   608G11  C0EA41630   2.114   6.490   8.194
   608G11  C0DF41631   2.415   6.648   8.043
   608G11  C08041632   2.342   6.299   8.032
   608G11  C0DO41633   2.491   6.600   7.934
   608G11  C0DJ41634   2.624   6.469   7.730
   608G11  C07K41635   2.495   6.141   7.873
   608G11  C07W41636   2.710   6.280   7.607
   608G11  C08341637   2.739   6.002   7.564
   608G11  C07J41638   2.510   5.996   7.845
   608G11  C06O41639   2.523   5.720   7.780
   608G11  C06M41640   2.684   5.765   7.612
   618G11  C07141641   0.681   8.411  12.460
   618G11  C07L41642   0.568   8.338  12.509
   618G11  C07M41643   0.494   8.249  12.427
   618G11  C07Y41644   0.385   8.173  12.477
   618G11  C08141645   0.339   8.187  12.611
   618G11  C08241646   0.224   8.115  12.654
   618G11  C0DI41647   0.168   8.094  12.792
   618G11  C0DH41648   0.203   8.144  12.922
   618G11  C0DG41649   0.100   8.107  13.015
   618G11  C0E941650   0.116   8.064  13.147
   618G11  C0E841651   0.009   7.961  13.162
   618G11  C0E741652  -0.066   7.926  13.286
   618G11  C0EB41653  -0.044   7.992  13.410
   618G11  C0EF41654  -0.129   7.996  13.528
   618G11  C0EE41655  -0.267   7.985  13.538
   618G11  C0FD41656  -0.332   8.085  13.617
   618G11  C0FE41657  -0.275   8.204  13.667
   618G11  H01B41658  -0.171   8.229  13.656
   618G11  C0FF41659  -0.350   8.297  13.735
   618G11  H01A41660  -0.309   8.386  13.780
   618G11  C0FG41661  -0.489   8.278  13.748
   618G11  H01841662  -0.553   8.347  13.801
   618G11  C0FH41663  -0.550   8.163  13.701
   618G11  C0FI41664  -0.691   8.144  13.712
   618G11  H01941665  -0.755   8.213  13.766
   618G11  O00K41666  -0.753   8.025  13.676
   618G11  C0FL41667  -0.672   7.930  13.617
   618G11  C0FK41668  -0.533   7.945  13.591
   618G11  C0FM41669  -0.459   7.847  13.523
   618G11  C0FN41670  -0.520   7.721  13.497
   618G11  C0FP41671  -0.660   7.701  13.531
   618G11  C0GO41672  -0.730   7.589  13.491
   618G11  C0GN41673  -0.864   7.571  13.491
   618G11  C0GR41674  -0.939   7.682  13.544
   618G11  C0GS41675  -1.075   7.675  13.549
   618G11  H01Q41676  -1.127   7.762  13.587
   618G11  C0GT41677  -1.139   7.563  13.500
   618G11  H01O41678  -1.246   7.548  13.502
   618G11  C0GU41679  -1.068   7.450  13.455
   618G11  H01P41680  -1.122   7.362  13.423
   618G11  O00L41681  -0.869   7.796  13.587
   618G11  C0GM41682  -0.927   7.456  13.439
   618G11  C0GL41683  -0.841   7.365  13.368
   618G11  H01R41684  -0.880   7.282  13.311
   618G11  C0GK41685  -0.706   7.375  13.367
   618G11  C0GP41686  -0.595   7.317  13.299
   618G11  C0E241687  -0.470   7.379  13.346
   618G11  C0E141688  -0.383   7.385  13.230
   618G11  C0DU41689  -0.313   7.498  13.178
   618G11  C0DT41690  -0.271   7.612  13.247
   618G11  C0E441691  -0.338   7.664  13.360
   618G11  C0E541692  -0.271   7.788  13.384
   618G11  C0DS41693  -0.196   7.717  13.198
   618G11  C0DR41694  -0.177   7.703  13.056
   618G11  C0DD41695  -0.101   7.788  12.978
   618G11  C0DC41696  -0.126   7.737  12.844
   618G11  C0DP41697  -0.210   7.618  12.837
   618G11  C0DA41698  -0.254   7.532  12.719
   618G11  C0D941699  -0.215   7.543  12.572
   618G11  C0CR41700  -0.265   7.445  12.476
   618G11  C0C041701  -0.351   7.347  12.512
   618G11  C0BZ41702  -0.411   7.250  12.428
   618G11  C0C141703  -0.496   7.148  12.479
   618G11  C0C741704  -0.540   7.045  12.394
   618G11  C0C641705  -0.601   6.932  12.440
   618G11  C0C941706  -0.643   6.830  12.355
   618G11  C0B841707  -0.697   6.711  12.416
   618G11  C0B741708  -0.759   6.613  12.339
   618G11  C0B641709  -0.824   6.481  12.368
   618G11  C0B541710  -0.799   6.393  12.472
   618G11  H00Z41711  -0.748   6.416  12.565
   618G11  C0B441712  -0.841   6.264  12.427
   618G11  H01041713  -0.819   6.167  12.468
   618G11  C0B341714  -0.882   6.273  12.293
   618G11  C0AP41715  -0.891   6.211  12.159
   618G11  C0AQ41716  -0.905   6.323  12.073
   618G11  C0AR41717  -0.850   6.316  11.945
   618G11  C0AS41718  -0.802   6.433  11.898
   618G11  C0AT41719  -0.779   6.546  11.971
   618G11  C0BA41720  -0.807   6.549  12.104
   618G11  C0AU41721  -0.694   6.644  11.926
   618G11  C0BE41722  -0.656   6.750  12.009
   618G11  C0BI41723  -0.576   6.854  11.953
   618G11  C0BJ41724  -0.537   6.849  11.824
   618G11  C0BK41725  -0.453   6.948  11.771
   618G11  C0BW41726  -0.397   7.045  11.856
   618G11  C0BV41727  -0.438   7.049  11.991
   618G11  C0BU41728  -0.385   7.150  12.076
   618G11  C0BX41729  -0.424   7.151  12.210
   618G11  C0BT41730  -0.294   7.242  12.029
   618G11  C0CD41731  -0.244   7.335  12.114
   618G11  C0CB41732  -0.285   7.349  12.250
   618G11  C0CE41733  -0.151   7.429  12.066
   618G11  C0CK41734  -0.104   7.419  11.933
   618G11  C0BS41735  -0.153   7.325  11.848
   618G11  C0CJ41736  -0.099   7.304  11.715
   618G11  C0BP41737  -0.152   7.198  11.635
   618G11  C0CI41738  -0.101   7.178  11.511
   618G11  C0CH41739  -0.169   7.096  11.417
   618G11  H01241740  -0.126   7.092  11.318
   618G11  C0BN41741  -0.272   7.007  11.462
   618G11  C0CG41742  -0.322   6.908  11.379
   618G11  C0CF41743  -0.263   6.884  11.249
   618G11  H01341744  -0.206   6.959  11.197
   618G11  O00G41745  -0.290   6.777  11.175
   618G11  C0AA41746  -0.366   6.677  11.230
   618G11  C0A941747  -0.398   6.571  11.141
   618G11  H00U41748  -0.349   6.567  11.044
   618G11  C0A841749  -0.463   6.455  11.191
   618G11  H00V41750  -0.473   6.369  11.127
   618G11  C0A741751  -0.509   6.449  11.324
   618G11  C0A641752  -0.495   6.573  11.404
   618G11  C0A541753  -0.550   6.596  11.532
   618G11  C0A441754  -0.624   6.492  11.596
   618G11  C0A341755  -0.661   6.348  11.585
   618G11  C0A241756  -0.619   6.268  11.480
   618G11  C0A141757  -0.660   6.135  11.464
   618G11  C0A041758  -0.729   6.036  11.549
   618G11  C09Z41759  -0.755   5.913  11.490
   618G11  C09Y41760  -0.791   5.794  11.565
   618G11  H00Y41761  -0.798   5.697  11.518
   618G11  C09X41762  -0.824   5.817  11.698
   618G11  C09W41763  -0.860   5.701  11.772
   618G11  H00R41764  -0.860   5.607  11.719
   618G11  C0AX41765  -0.907   5.710  11.903
   618G11  H00S41766  -0.937   5.620  11.954
   618G11  C0AW41767  -0.902   5.836  11.963
   618G11  H00T41768  -0.938   5.843  12.065
   618G11  C0AN41769  -0.859   5.955  11.895
   618G11  C0AO41770  -0.859   6.076  11.960
   618G11  C0AM41771  -0.815   5.943  11.761
   618G11  C0B241772  -0.737   5.881  11.349
   618G11  O00D41773  -0.752   5.770  11.297
   618G11  C0B141774  -0.679   5.977  11.263
   618G11  H00W41775  -0.659   5.960  11.159
   618G11  C0AL41776  -0.774   6.054  11.685
   618G11  C0AK41777  -0.785   6.177  11.753
   618G11  C0B041778  -0.640   6.099  11.331
   618G11  C0AZ41779  -0.585   6.213  11.265
   618G11  H00X41780  -0.569   6.201  11.158
   618G11  C0AJ41781  -0.733   6.302  11.699
   618G11  C0AH41782  -0.681   6.529  11.716
   618G11  C0AE41783  -0.523   6.716  11.608
   618G11  C0AD41784  -0.448   6.821  11.558
   618G11  C0AY41785  -0.570   6.321  11.358
   618G11  C0AB41786  -0.419   6.684  11.357
   618G11  C0AC41787  -0.401   6.805  11.429
   618G11  C0BM41788  -0.309   7.016  11.597
   618G11  C0CM41789   0.013   7.246  11.477
   618G11  C09M41790   0.042   7.372  11.534
   618G11  C09841791   0.103   7.467  11.437
   618G11  C08R41792   0.175   7.591  11.462
   618G11  C08Q41793   0.234   7.652  11.352
   618G11  C08P41794   0.352   7.731  11.322
   618G11  C08Y41795   0.409   7.716  11.193
   618G11  C09741796   0.382   7.604  11.118
   618G11  C09641797   0.493   7.545  11.067
   618G11  C09041798   0.585   7.655  11.062
   618G11  C09541799   0.718   7.649  11.021
   618G11  C09441800   0.804   7.769  11.009
   618G11  C08J41801   0.806   7.885  11.084
   618G11  C08I41802   0.937   7.921  11.112
   618G11  C08H41803   0.947   8.001  11.231
   618G11  C08G41804   0.812   7.981  11.300
   618G11  C08F41805   0.741   8.023  11.423
   618G11  C08E41806   0.800   8.127  11.502
   618G11  C05941807   0.896   8.225  11.458
   618G11  C05841808   0.930   8.337  11.537
   618G11  C05741809   1.020   8.445  11.502
   618G11  C05641810   1.079   8.436  11.375
   618G11  C05541811   1.044   8.340  11.286
   618G11  C05441812   1.149   8.325  11.189
   618G11  C05341813   1.256   8.410  11.227
   618G11  C05241814   1.395   8.404  11.190
   618G11  C05141815   1.441   8.311  11.084
   618G11  C05U41816   1.357   8.200  11.025
   618G11  C05T41817   1.229   8.140  11.059
   618G11  C06K41818   1.192   8.061  10.951
   618G11  H00J41819   1.091   8.024  10.944
   618G11  C06L41820   1.294   8.059  10.854
   618G11  H00I41821   1.300   8.008  10.759
   618G11  C05V41822   1.396   8.148  10.899
   618G11  C06J41823   1.523   8.165  10.847
   618G11  H00K41824   1.540   8.120  10.751
   618G11  C05X41825   1.616   8.237  10.924
   618G11  C06I41826   1.757   8.235  10.901
   618G11  H00L41827   1.790   8.160  10.831
   618G11  C04Z41828   1.855   8.307  10.971
   618G11  C06H41829   1.989   8.283  10.948
   618G11  H00H41830   2.015   8.210  10.873
   618G11  C04Y41831   2.091   8.360  11.022
   618G11  C06G41832   2.230   8.324  11.010
   618G11  O00941833   2.262   8.232  10.937
   618G11  O00841834   2.321   8.400  11.083
   618G11  C04P41835   2.273   8.489  11.174
   618G11  C04J41836   2.366   8.560  11.263
   618G11  C04Q41837   2.509   8.563  11.252
   618G11  H00E41838   2.563   8.519  11.169
   618G11  C04M41839   2.591   8.637  11.338
   618G11  C04R41840   2.733   8.627  11.337
   618G11  H00F41841   2.788   8.578  11.258
   618G11  C04S41842   2.800   8.694  11.434
   618G11  H00G41843   2.907   8.681  11.440
   618G11  O00741844   2.742   8.771  11.532
   618G11  C03V41845   2.605   8.774  11.533
   618G11  C03U41846   2.541   8.828  11.644
   618G11  O00641847   2.627   8.875  11.733
   618G11  C03F41848   2.572   8.937  11.846
   618G11  C03E41849   2.432   8.931  11.874
   618G11  C03D41850   2.349   8.887  11.776
   618G11  C03C41851   2.208   8.884  11.797
   618G11  C03B41852   2.167   8.930  11.923
   618G11  C03A41853   2.029   8.931  11.953
   618G11  C03941854   1.930   8.876  11.859
   618G11  C03841855   1.805   8.892  11.934
   618G11  C03741856   1.846   8.949  12.060
   618G11  C03641857   1.760   8.974  12.155
   618G11  C02R41858   1.784   8.996  12.291
   618G11  C03541859   1.658   8.990  12.352
   618G11  C03R41860   1.560   8.949  12.261
   618G11  C03S41861   1.446   8.875  12.293
   618G11  C04941862   1.379   8.817  12.191
   618G11  C04841863   1.442   8.819  12.062
   618G11  C03P41864   1.578   8.863  12.036
   618G11  C04741865   1.360   8.758  11.965
   618G11  C04641866   1.391   8.743  11.829
   618G11  C04541867   1.506   8.774  11.753
   618G11  C03T41868   1.628   8.817  11.789
   618G11  C04441869   1.719   8.800  11.682
   618G11  C04341870   1.639   8.781  11.565
   618G11  C04241871   1.709   8.714  11.464
   618G11  C04141872   1.850   8.742  11.506
   618G11  C04041873   1.967   8.705  11.436
   618G11  C03Z41874   2.108   8.720  11.476
   618G11  C04H41875   2.179   8.659  11.376
   618G11  C04G41876   2.092   8.603  11.286
   618G11  C03N41877   2.180   8.790  11.578
   618G11  C03Y41878   2.317   8.782  11.562
   618G11  C03X41879   2.388   8.712  11.457
   618G11  C04F41880   1.958   8.625  11.319
   618G11  C04E41881   1.858   8.560  11.239
   618G11  C04O41882   1.903   8.471  11.134
   618G11  C04D41883   1.718   8.568  11.259
   618G11  C04V41884   1.627   8.485  11.191
   618G11  C04W41885   1.673   8.398  11.091
   618G11  C04C41886   1.642   8.640  11.352
   618G11  C04L41887   1.503   8.596  11.335
   618G11  C04U41888   1.393   8.623  11.429
   618G11  C05Q41889   1.262   8.573  11.425
   618G11  C05P41890   1.202   8.589  11.548
   618G11  C04T41891   1.291   8.662  11.630
   618G11  C04B41892   1.404   8.691  11.555
   618G11  C03M41893   1.861   8.787  11.646
   618G11  C04A41894   1.509   8.755  11.615
   618G11  C05H41895   1.279   8.692  11.765
   618G11  C05G41896   1.182   8.669  11.862
   618G11  C05F41897   1.058   8.603  11.843
   618G11  C05E41898   0.977   8.547  11.948
   618G11  C05L41899   0.964   8.548  12.089
   618G11  C05K41900   1.052   8.630  12.171
   618G11  C05J41901   1.170   8.697  12.134
   618G11  C06641902   1.019   8.627  12.313
   618G11  C06541903   0.906   8.555  12.361
   618G11  C06441904   0.828   8.474  12.274
   618G11  C06N41905   0.879   8.545  12.499
   618G11  C06941906   0.968   8.603  12.589
   618G11  C06P41907   0.940   8.585  12.726
   618G11  C06R41908   1.034   8.625  12.815
   618G11  C06B41909   1.150   8.690  12.775
   618G11  C06S41910   1.255   8.714  12.867
   618G11  C02G41911   1.366   8.784  12.824
   618G11  C02F41912   1.469   8.806  12.916
   618G11  C02741913   1.458   8.765  13.047
   618G11  C02641914   1.567   8.782  13.132
   618G11  C00E41915   1.565   8.714  13.253
   618G11  C00D41916   1.677   8.713  13.332
   618G11  C00C41917   1.671   8.643  13.449
   618G11  C00B41918   1.565   8.578  13.500
   618G11  C01541919   1.450   8.582  13.423
   618G11  C07F41920   1.335   8.528  13.473
   618G11  C07E41921   1.222   8.526  13.388
   618G11  C06W41922   1.228   8.573  13.257
   618G11  C06V41923   1.343   8.638  13.213
   618G11  C06X41924   1.121   8.561  13.173
   618G11  C07B41925   1.010   8.495  13.220
   618G11  C07C41926   1.004   8.451  13.350
   618G11  C0FU41927   0.889   8.387  13.391
   618G11  C0F741928   0.885   8.328  13.518
   618G11  C0F641929   0.769   8.267  13.562
   618G11  C0F841930   0.763   8.209  13.692
   618G11  C0F941931   0.644   8.148  13.734
   618G11  C0FA41932   0.639   8.096  13.863
   618G11  C0FZ41933   0.750   8.098  13.944
   618G11  C0G041934   0.743   8.046  14.076
   618G11  C0GD41935   0.623   7.985  14.125
   618G11  C0FC41936   0.515   7.974  14.038
   618G11  C0GH41937   0.392   7.915  14.082
   618G11  C0EY41938   0.279   7.921  14.006
   618G11  C0EX41939   0.159   7.866  14.054
   618G11  C0EW41940   0.042   7.883  13.974
   618G11  C0FR41941  -0.073   7.816  14.012
   618G11  H01D41942  -0.162   7.826  13.952
   618G11  C0FS41943  -0.081   7.742  14.128
   618G11  H01C41944  -0.167   7.686  14.162
   618G11  C0GJ41945   0.025   7.734  14.216
   618G11  H01N41946   0.023   7.685  14.313
   618G11  C0EV41947   0.050   7.946  13.852
   618G11  C0FT41948  -0.064   7.978  13.774
   618G11  H01E41949  -0.166   7.963  13.806
   618G11  C0EU41950   0.174   7.988  13.800
   618G11  C0ET41951   0.196   8.023  13.668
   618G11  C0EI41952   0.312   8.068  13.609
   618G11  C0F141953   0.419   8.081  13.694
   618G11  C0F041954   0.408   8.036  13.829
   618G11  C0EH41955   0.317   8.102  13.475
   618G11  C0EG41956   0.206   8.078  13.386
   618G11  C0EJ41957   0.439   8.160  13.430
   618G11  C0F341958   0.543   8.185  13.521
   618G11  C0EK41959   0.444   8.204  13.296
   618G11  C0EL41960   0.341   8.174  13.195
   618G11  C0EM41961   0.376   8.229  13.067
   618G11  C0EN41962   0.484   8.313  13.044
   618G11  C07I41963   0.484   8.355  12.910
   618G11  C07441964   0.596   8.408  12.858
   618G11  C07341965   0.617   8.417  12.725
   618G11  C07241966   0.736   8.478  12.677
   618G11  C07541967   0.698   8.436  12.954
   618G11  C07641968   0.687   8.403  13.091
   618G11  C07841969   0.795   8.416  13.175
   618G11  C07G41970   0.814   8.494  12.903
   618G11  C07041971   0.915   8.521  12.998
   618G11  C07Z41972   0.392   8.281  12.833
   618G11  C07741973   0.574   8.341  13.139
   618G11  C0EO41974   0.560   8.285  13.262
   618G11  C0F441975   0.663   8.304  13.354
   618G11  C0EQ41976   0.079   8.027  13.591
   618G11  C0FQ41977   0.151   7.800  14.180
   618G11  C0GI41978   0.265   7.793  14.254
   618G11  H01L41979   0.256   7.746  14.351
   618G11  C0EZ41980   0.286   7.971  13.876
   618G11  C0GG41981   0.383   7.857  14.213
   618G11  C0GF41982   0.493   7.868  14.303
   618G11  H01M41983   0.485   7.828  14.404
   618G11  C0GE41984   0.610   7.932  14.256
   618G11  H01K41985   0.693   7.937  14.325
   618G11  O00J41986   0.856   8.047  14.159
   618G11  C0GA41987   0.969   8.119  14.115
   618G11  C0G941988   1.081   8.119  14.200
   618G11  H01H41989   1.080   8.080  14.301
   618G11  C0G841990   1.204   8.176  14.159
   618G11  C0G741991   1.327   8.180  14.236
   618G11  H01I41992   1.321   8.162  14.342
   618G11  O00I41993   1.445   8.220  14.188
   618G11  C0G641994   1.433   8.303  14.082
   618G11  H01J41995   1.525   8.359  14.068
   618G11  C02D41996   1.322   8.295  13.989
   618G11  C02C41997   1.331   8.351  13.854
   618G11  C01741998   1.456   8.402  13.802
   618G11  C01641999   1.453   8.465  13.676
   618G11  O00142000   1.574   8.402  13.872
   618G11  C01842001   1.690   8.452  13.826
   618G11  C00942002   1.695   8.511  13.695
   618G11  C00842003   1.811   8.555  13.628
   618G11  C00742004   1.950   8.578  13.657
   618G11  C00642005   2.004   8.556  13.784
   618G11  C00542006   2.146   8.577  13.815
   618G11  C00442007   2.254   8.632  13.736
   618G11  C00342008   2.256   8.700  13.600
   618G11  C00242009   2.382   8.750  13.550
   618G11  C00P42010   2.380   8.825  13.429
   618G11  C00O42011   2.499   8.868  13.366
   618G11  C00N42012   2.500   8.927  13.236
   618G11  C01042013   2.620   8.961  13.172
   618G11  C01142014   2.626   9.015  13.047
   618G11  C01Q42015   2.751   9.047  12.993
   618G11  C01U42016   2.871   9.019  13.055
   618G11  C01242017   2.864   8.947  13.177
   618G11  H00042018   2.949   8.908  13.231
   618G11  C01V42019   2.985   9.051  12.987
   618G11  H00742020   3.075   9.027  13.042
   618G11  O00542021   2.992   9.126  12.870
   618G11  C01W42022   2.875   9.139  12.803
   618G11  C03142023   2.884   9.190  12.676
   618G11  C03242024   2.768   9.224  12.610
   618G11  H00A42025   2.767   9.272  12.513
   618G11  C03342026   2.642   9.201  12.667
   618G11  H00B42027   2.557   9.219  12.602
   618G11  C01O42028   2.638   9.135  12.792
   618G11  C01N42029   2.518   9.087  12.840
   618G11  C01M42030   2.387   9.105  12.768
   618G11  C01L42031   2.323   9.099  12.632
   618G11  C01K42032   2.186   9.094  12.660
   618G11  C01Y42033   2.089   9.073  12.557
   618G11  C02I42034   2.132   9.057  12.426
   618G11  C02N42035   2.031   9.027  12.329
   618G11  C02M42036   2.073   9.003  12.196
   618G11  C02L42037   2.207   9.004  12.158
   618G11  C02K42038   2.304   9.026  12.263
   618G11  C02U42039   2.441   9.014  12.229
   618G11  C02V42040   2.483   9.008  12.095
   618G11  C03H42041   2.614   9.038  12.058
   618G11  H00C42042   2.675   9.094  12.128
   618G11  C02W42043   2.537   9.011  12.324
   618G11  C02X42044   2.489   9.022  12.453
   618G11  C02Y42045   2.600   8.967  12.523
   618G11  H00842046   2.605   8.933  12.626
   618G11  C02Z42047   2.716   8.954  12.435
   618G11  O00442048   2.834   8.943  12.469
   618G11  O00342049   2.663   8.969  12.313
   618G11  C02J42050   2.268   9.052  12.399
   618G11  C01Z42051   1.964   9.049  12.603
   618G11  C02042052   1.938   9.035  12.738
   618G11  C01I42053   2.031   9.052  12.831
   618G11  C01H42054   2.031   9.002  12.959
   618G11  C00K42055   2.152   9.000  13.036
   618G11  C01S42056   2.274   9.041  12.987
   618G11  C01442057   2.393   9.015  13.046
   618G11  C00J42058   2.147   8.938  13.159
   618G11  C00I42059   2.028   8.890  13.209
   618G11  C00H42060   1.912   8.897  13.129
   618G11  C00G42061   1.794   8.840  13.168
   618G11  C00S42062   2.029   8.820  13.332
   618G11  C00T42063   1.909   8.768  13.366
   618G11  C00U42064   1.910   8.684  13.472
   618G11  C00R42065   2.144   8.800  13.406
   618G11  C00L42066   2.265   8.918  13.230
   618G11  C02842067   1.914   8.950  13.002
   618G11  C02342068   1.807   8.943  12.918
   618G11  C02442069   1.690   8.885  12.961
   618G11  C02142070   1.818   8.985  12.786
   618G11  C02242071   1.717   8.966  12.700
   618G11  C02H42072   1.594   8.911  12.741
   618G11  C03042073   1.491   8.887  12.649
   618G11  C03442074   1.506   8.916  12.520
   618G11  C02P42075   1.738   8.985  12.566
   618G11  C02B42076   1.864   9.019  12.510
   618G11  C01J42077   2.154   9.110  12.792
   618G11  C01X42078   2.365   9.061  12.504
   618G11  C01T42079   2.277   9.088  12.853
   618G11  H00942080   2.980   9.200  12.626
   618G11  C01P42081   2.752   9.108  12.868
   618G11  C01R42082   2.514   9.041  12.976
   618G11  C00Z42083   2.742   8.923  13.242
   618G11  O00042084   2.740   8.875  13.373
   618G11  C00M42085   2.384   8.955  13.174
   618G11  C00Y42086   2.618   8.839  13.423
   618G11  C01342087   2.618   8.769  13.542
   618G11  H00142088   2.714   8.743  13.583
   618G11  C00Q42089   2.263   8.849  13.355
   618G11  C00142090   2.504   8.718  13.611
   618G11  C00042091   2.506   8.633  13.721
   618G11  H00642092   2.596   8.602  13.773
   618G11  C00W42093   2.145   8.721  13.520
   618G11  C01G42094   2.384   8.597  13.779
   618G11  H00542095   2.408   8.547  13.872
   618G11  C01C42096   2.160   8.534  13.954
   618G11  H00242097   2.249   8.533  14.015
   618G11  C01B42098   2.035   8.484  13.996
   618G11  C01D42099   1.999   8.426  14.120
   618G11  H00342100   2.072   8.414  14.199
   618G11  C01E42101   1.874   8.382  14.134
   618G11  H00442102   1.843   8.336  14.227
   618G11  O00242103   1.775   8.394  14.039
   618G11  C01A42104   1.935   8.501  13.898
   618G11  C00V42105   2.020   8.657  13.553
   618G11  C01942106   1.803   8.445  13.915
   618G11  C02E42107   1.222   8.348  13.767
   618G11  C0FX42108   1.104   8.282  13.812
   618G11  C0FW42109   0.992   8.273  13.726
   618G11  C0GB42110   1.097   8.226  13.942
   618G11  C0G342111   1.220   8.408  13.645
   618G11  C07H42112   1.111   8.402  13.561
   618G11  C0GC42113   1.206   8.226  14.031
   618G11  C0G242114   0.977   8.168  13.981
   618G11  C0G142115   0.869   8.163  13.900
   618G11  C0FB42116   0.524   8.035  13.911
   618G11  C0F242117   0.534   8.136  13.651
   618G11  C0FY42118   0.876   8.218  13.773
   618G11  C0F542119   0.657   8.252  13.483
   618G11  C0FV42120   0.996   8.335  13.600
   618G11  C07942121   0.780   8.374  13.306
   618G11  C07A42122   0.906   8.475  13.129
   618G11  C06Y42123   1.129   8.610  13.044
   618G11  C07D42124   1.114   8.463  13.435
   618G11  C01F42125   1.333   8.467  13.599
   618G11  C00A42126   1.573   8.519  13.623
   618G11  C00X42127   1.796   8.620  13.505
   618G11  C00F42128   1.794   8.771  13.288
   618G11  C02942129   1.451   8.647  13.298
   618G11  C02542130   1.681   8.840  13.088
   618G11  C06U42131   1.349   8.691  13.084
   618G11  C02A42132   1.585   8.867  12.870
   618G11  C05Y42133   1.379   8.817  12.688
   618G11  C05Z42134   1.278   8.786  12.598
   618G11  C06042135   1.304   8.804  12.464
   618G11  C06242136   1.216   8.755  12.365
   618G11  C06T42137   1.241   8.674  12.999
   618G11  C06A42138   1.168   8.715  12.637
   618G11  C06Z42139   1.025   8.589  12.954
   618G11  C06Q42140   0.831   8.517  12.768
   618G11  C06842141   1.077   8.672  12.543
   618G11  C06742142   1.103   8.686  12.408
   618G11  C06342143   0.857   8.462  12.142
   618G11  C06C42144   0.775   8.379  12.062
   618G11  C06D42145   0.802   8.357  11.931
   618G11  C06E42146   0.746   8.266  11.844
   618G11  C07Q42147   0.653   8.187  11.891
   618G11  C07P42148   0.610   8.206  12.026
   618G11  C07T42149   0.514   8.130  12.074
   618G11  C07U42150   0.474   8.148  12.204
   618G11  C07V42151   0.368   8.072  12.256
   618G11  C08442152   0.310   7.977  12.174
   618G11  C08C42153   0.359   7.955  12.046
   618G11  C08B42154   0.294   7.861  11.967
   618G11  C08A42155   0.336   7.854  11.835
   618G11  C08942156   0.433   7.930  11.773
   618G11  C08842157   0.470   7.914  11.640
   618G11  C08742158   0.576   7.981  11.589
   618G11  C08642159   0.634   8.078  11.670
   618G11  C08X42160   0.401   7.822  11.554
   618G11  C08T42161   0.297   7.744  11.621
   618G11  C08D42162   0.490   8.024  11.861
   618G11  C08U42163   0.267   7.768  11.754
   618G11  C08V42164   0.172   7.686  11.811
   618G11  C0CY42165   0.123   7.694  11.937
   618G11  C0CX42166   0.030   7.605  11.975
   618G11  C0CW42167  -0.015   7.619  12.105
   618G11  C0CV42168   0.044   7.716  12.190
   618G11  C0D442169   0.144   7.803  12.142
   618G11  C0CU42170   0.003   7.723  12.319
   618G11  C0CT42171  -0.088   7.627  12.376
   618G11  C0CS42172  -0.148   7.537  12.286
   618G11  C0D642173   0.051   7.832  12.388
   618G11  C0EC42174   0.153   7.919  12.346
   618G11  C07X42175   0.208   8.014  12.426
   618G11  C0DL42176   0.013   7.835  12.520
   618G11  C0DK42177   0.063   7.936  12.602
   618G11  C0DN42178   0.013   7.913  12.723
   618G11  C0D842179  -0.073   7.747  12.586
   618G11  C08W42180   0.136   7.600  11.709
   618G11  C0CQ42181   0.032   7.504  11.753
   618G11  C09342182   0.185   7.789  12.012
   618G11  C09242183   0.205   7.898  12.222
   618G11  C08542184   0.456   8.035  11.993
   618G11  C07S42185   0.593   8.099  11.806
   618G11  C06F42186   0.794   8.250  11.713
   618G11  C07O42187   0.673   8.302  12.112
   618G11  C07N42188   0.642   8.312  12.246
   618G11  C05D42189   0.891   8.453  11.880
   618G11  C05C42190   0.922   8.443  11.747
   618G11  C05N42191   1.028   8.532  11.718
   618G11  C05M42192   1.226   8.710  11.996
   618G11  C05I42193   1.253   8.751  12.230
   618G11  C06142194   1.418   8.862  12.426
   618G11  C02Q42195   1.629   8.966  12.483
   618G11  C02O42196   1.895   9.021  12.375
   618G11  C03Q42197   1.628   8.932  12.143
   618G11  C03O42198   1.672   8.848  11.919
   618G11  C03L42199   1.972   8.827  11.728
   618G11  C02S42200   1.981   8.959  12.082
   618G11  C02T42201   2.252   8.970  12.028
   618G11  C03K42202   2.118   8.836  11.697
   618G11  C03I42203   2.387   8.968  11.998
   618G11  C03G42204   2.665   8.987  11.937
   618G11  H00D42205   2.767   8.997  11.903
   618G11  C03J42206   2.402   8.837  11.658
   618G11  C03W42207   2.528   8.706  11.444
   618G11  C04I42208   2.317   8.642  11.363
   618G11  C04K42209   2.136   8.512  11.190
   618G11  C04N42210   2.041   8.449  11.113
   618G11  C04X42211   1.807   8.395  11.064
   618G11  C05042212   1.573   8.314  11.034
   618G11  C05W42213   1.496   8.491  11.239
   618G11  C05S42214   1.138   8.186  11.156
   618G11  C05R42215   1.201   8.488  11.334
   618G11  C05O42216   1.079   8.530  11.592
   618G11  C05B42217   0.881   8.339  11.662
   618G11  C05A42218   0.970   8.228  11.330
   618G11  C07R42219   0.741   8.157  11.627
   618G11  C08N42220   0.623   7.957  11.460
   618G11  C08M42221   0.550   7.875  11.374
   618G11  C08L42222   0.608   7.846  11.246
   618G11  C09142223   1.012   8.131  11.227
   618G11  C09K42224   1.023   7.807  11.084
   618G11  H00M42225   1.110   7.783  11.142
   618G11  C08K42226   0.737   7.901  11.210
   618G11  C09J42227   0.936   7.715  11.007
   618G11  C09I42228   0.931   7.569  10.991
   618G11  C09L42229   1.031   7.479  10.947
   618G11  H00N42230   1.130   7.509  10.915
   618G11  C09Q42231   0.987   7.356  10.931
   618G11  H00O42232   1.062   7.288  10.895
   618G11  O00B42233   0.861   7.310  10.955
   618G11  C09G42234   0.763   7.397  10.982
   618G11  C09F42235   0.636   7.337  10.993
   618G11  O00A42236   0.634   7.200  10.966
   618G11  C09P42237   0.515   7.143  10.946
   618G11  H00P42238   0.494   7.098  10.849
   618G11  C09O42239   0.410   7.184  11.039
   618G11  C09D42240   0.401   7.321  11.076
   618G11  C09C42241   0.291   7.388  11.145
   618G11  C09N42242   0.184   7.339  11.230
   618G11  C09T42243   0.194   7.211  11.286
   618G11  C09S42244   0.252   7.097  11.223
   618G11  C0CP42245   0.205   6.989  11.296
   618G11  C0CN42246   0.122   7.027  11.403
   618G11  C0CO42247   0.077   6.927  11.487
   618G11  H01442248   0.030   6.953  11.581
   618G11  C0CZ42249   0.121   6.796  11.458
   618G11  H01542250   0.082   6.721  11.525
   618G11  C0D042251   0.194   6.752  11.345
   618G11  C0G542252   0.238   6.613  11.312
   618G11  H01F42253   0.214   6.525  11.370
   618G11  C0G442254   0.306   6.598  11.201
   618G11  H01G42255   0.340   6.497  11.182
   618G11  O00H42256   0.340   6.697  11.115
   618G11  C0D242257   0.318   6.832  11.144
   618G11  C09V42258   0.357   6.944  11.069
   618G11  H00Q42259   0.420   6.924  10.984
   618G11  C0D142260   0.239   6.857  11.259
   618G11  C09R42261   0.338   7.078  11.109
   618G11  C09H42262   0.798   7.529  10.997
   618G11  C09E42263   0.512   7.402  11.042
   618G11  C09B42264   0.283   7.527  11.153
   618G11  C08Z42265   0.542   7.748  11.167
   618G11  C08O42266   0.430   7.808  11.416
   618G11  C09A42267   0.181   7.573  11.243
   618G11  C08S42268   0.210   7.635  11.593
   618G11  C09942269   0.127   7.449  11.296
   618G11  C09U42270   0.109   7.172  11.398
   618G11  C0BO42271  -0.256   7.120  11.679
   618G11  C0CL42272  -0.003   7.395  11.666
   618G11  C0D342273  -0.013   7.508  11.886
   618G11  C0D542274  -0.111   7.531  12.152
   618G11  C0BR42275  -0.249   7.234  11.896
   618G11  C0BQ42276  -0.300   7.133  11.806
   618G11  C0BL42277  -0.405   6.927  11.642
   618G11  C0AF42278  -0.568   6.734  11.745
   618G11  C0BH42279  -0.526   6.960  12.037
   618G11  C0BG42280  -0.562   6.953  12.172
   618G11  C0BD42281  -0.680   6.743  12.145
   618G11  C0AG42282  -0.646   6.639  11.798
   618G11  C0AI42283  -0.750   6.423  11.772
   618G11  C0AV42284  -0.836   6.193  11.884
   618G11  C0BB42285  -0.891   6.443  12.148
   618G11  O00C42286  -0.887   6.085  12.102
   618G11  C0BC42287  -0.901   6.410  12.278
   618G11  C0B942288  -0.756   6.637  12.197
   618G11  O00E42289  -0.701   6.703  12.551
   618G11  C0CA42290  -0.670   6.797  12.634
   618G11  O00F42291  -0.667   6.773  12.755
   618G11  C0BF42292  -0.633   6.845  12.220
   618G11  C0C542293  -0.626   6.920  12.577
   618G11  C0C442294  -0.597   7.029  12.663
   618G11  H01142295  -0.627   7.037  12.767
   618G11  C0C842296  -0.509   7.049  12.259
   618G11  C0C242297  -0.521   7.134  12.614
   618G11  C0C342298  -0.476   7.246  12.687
   618G11  C0DY42299  -0.502   7.264  12.825
   618G11  H01642300  -0.558   7.205  12.895
   618G11  C0DX42301  -0.432   7.384  12.861
   618G11  C0DW42302  -0.392   7.393  12.995
   618G11  C0BY42303  -0.375   7.252  12.292
   618G11  C0DB42304  -0.393   7.347  12.646
   618G11  C0CC42305  -0.230   7.441  12.339
   618G11  C0D742306  -0.126   7.635  12.511
   618G11  C0DZ42307  -0.351   7.431  12.748
   618G11  C0DM42308  -0.079   7.802  12.719
   618G11  C0DQ42309  -0.236   7.596  12.973
   618G11  C0DV42310  -0.306   7.495  13.041
   618G11  C0E042311  -0.447   7.328  13.116
   618G11  C0FO42312  -0.514   7.494  13.423
   618G11  C0E342313  -0.587   7.309  13.157
   618G11  H01742314  -0.673   7.286  13.096
   618G11  C0GV42315  -0.651   7.485  13.434
   618G11  C0ES42316  -0.447   7.616  13.434
   618G11  C0GQ42317  -0.736   7.804  13.583
   618G11  C0FJ42318  -0.474   8.063  13.634
   618G11  C0ED42319  -0.331   7.879  13.475
   618G11  C0ER42320  -0.045   8.003  13.643
   618G11  C0EP42321   0.083   8.046  13.454
   618G11  C0E642322  -0.168   7.820  13.291
   618G11  C0DE42323  -0.038   7.914  13.029
   618G11  C0EA42324   0.223   8.106  13.244
   618G11  C0DF42325   0.013   8.015  12.946
   618G11  C08042326   0.315   8.219  12.939
   618G11  C0DO42327   0.069   7.998  12.817
   618G11  C0DJ42328   0.163   8.029  12.557
   618G11  C07K42329   0.413   8.275  12.693
   618G11  C07W42330   0.321   8.085  12.385
   618G11  C08342331   0.535   8.237  12.293
   618G11  C07J42332   0.528   8.348  12.646
   618G11  C06O42333   0.766   8.477  12.545
   618G11  C06M42334   0.714   8.401  12.325
   628G11  C07142335  10.657  10.651   7.917
   628G11  C07L42336  10.635  10.758   8.001
   628G11  C07M42337  10.550  10.748   8.112
   628G11  C07Y42338  10.526  10.855   8.197
   628G11  C08142339  10.585  10.981   8.173
   628G11  C08242340  10.551  11.087   8.257
   628G11  C0DI42341  10.583  11.234   8.245
   628G11  C0DH42342  10.697  11.294   8.181
   628G11  C0DG42343  10.685  11.438   8.194
   628G11  C0E942344  10.787  11.543   8.209
   628G11  C0E842345  10.721  11.634   8.309
   628G11  C0E742346  10.751  11.778   8.330
   628G11  C0EB42347  10.862  11.838   8.260
   628G11  C0EF42348  10.887  11.982   8.240
   628G11  C0EE42349  10.804  12.099   8.238
   628G11  C0FD42350  10.814  12.183   8.127
   628G11  C0FE42351  10.880  12.159   8.001
   628G11  H01B42352  10.924  12.061   7.990
   628G11  C0FF42353  10.898  12.252   7.899
   628G11  H01A42354  10.944  12.218   7.807
   628G11  C0FG42355  10.848  12.376   7.918
   628G11  H01842356  10.873  12.457   7.851
   628G11  C0FH42357  10.777  12.405   8.031
   628G11  C0FI42358  10.700  12.530   8.055
   628G11  H01942359  10.697  12.603   7.975
   628G11  O00K42360  10.631  12.558   8.167
   628G11  C0FL42361  10.622  12.462   8.261
   628G11  C0FK42362  10.682  12.335   8.250
   628G11  C0FM42363  10.660  12.239   8.352
   628G11  C0FN42364  10.602  12.275   8.476
   628G11  C0FP42365  10.551  12.405   8.484
   628G11  C0GO42366  10.476  12.441   8.592
   628G11  C0GN42367  10.394  12.559   8.596
   628G11  C0GR42368  10.410  12.651   8.485
   628G11  C0GS42369  10.346  12.779   8.495
   628G11  H01Q42370  10.358  12.851   8.416
   628G11  C0GT42371  10.266  12.811   8.606
   628G11  H01O42372  10.208  12.902   8.608
   628G11  C0GU42373  10.244  12.714   8.704
   628G11  H01P42374  10.186  12.740   8.792
   628G11  O00L42375  10.503  12.623   8.386
   628G11  C0GM42376  10.308  12.584   8.707
   628G11  C0GL42377  10.282  12.476   8.794
   628G11  H01R42378  10.203  12.482   8.867
   628G11  C0GK42379  10.364  12.358   8.791
   628G11  C0GP42380  10.363  12.232   8.856
   628G11  C0E242381  10.488  12.169   8.821
   628G11  C0E142382  10.464  12.030   8.826
   628G11  C0DU42383  10.492  11.933   8.730
   628G11  C0DT42384  10.575  11.939   8.618
   628G11  C0E442385  10.618  12.054   8.551
   628G11  C0E542386  10.683  12.012   8.435
   628G11  C0DS42387  10.599  11.830   8.536
   628G11  C0DR42388  10.522  11.719   8.567
   628G11  C0DD42389  10.520  11.600   8.495
   628G11  C0DC42390  10.414  11.517   8.565
   628G11  C0DP42391  10.348  11.579   8.673
   628G11  C0DA42392  10.237  11.540   8.765
   628G11  C0D942393  10.172  11.405   8.782
   628G11  C0CR42394  10.074  11.373   8.885
   628G11  C0C042395  10.027  11.478   8.968
   628G11  C0BZ42396   9.925  11.471   9.063
   628G11  C0C142397   9.884  11.578   9.143
   628G11  C0C742398   9.773  11.567   9.234
   628G11  C0C642399   9.734  11.675   9.314
   628G11  C0C942400   9.642  11.666   9.410
   628G11  C0B842401   9.595  11.781   9.479
   628G11  C0B742402   9.504  11.766   9.590
   628G11  C0B642403   9.437  11.866   9.680
   628G11  C0B542404   9.383  11.987   9.625
   628G11  H00Z42405   9.413  12.033   9.532
   628G11  C0B442406   9.264  12.008   9.704
   628G11  H01042407   9.180  12.074   9.687
   628G11  C0B342408   9.253  11.912   9.806
   628G11  C0AP42409   9.155  11.830   9.878
   628G11  C0AQ42410   9.217  11.703   9.882
   628G11  C0AR42411   9.139  11.584   9.874
   628G11  C0AS42412   9.208  11.476   9.826
   628G11  C0AT42413   9.322  11.481   9.746
   628G11  C0BA42414   9.386  11.604   9.736
   628G11  C0AU42415   9.357  11.377   9.664
   628G11  C0BE42416   9.452  11.398   9.564
   628G11  C0BI42417   9.477  11.292   9.477
   628G11  C0BJ42418   9.403  11.173   9.483
   628G11  C0BK42419   9.430  11.067   9.399
   628G11  C0BW42420   9.538  11.072   9.309
   628G11  C0BV42421   9.608  11.192   9.293
   628G11  C0BU42422   9.706  11.205   9.199
   628G11  C0BX42423   9.763  11.330   9.183
   628G11  C0BT42424   9.739  11.093   9.122
   628G11  C0CD42425   9.836  11.111   9.025
   628G11  C0CB42426   9.898  11.239   9.001
   628G11  C0CE42427   9.873  11.001   8.945
   628G11  C0CK42428   9.803  10.880   8.962
   628G11  C0BS42429   9.699  10.864   9.056
   628G11  C0CJ42430   9.631  10.742   9.070
   628G11  C0BP42431   9.525  10.731   9.168
   628G11  C0CI42432   9.463  10.607   9.191
   628G11  C0CH42433   9.375  10.604   9.301
   628G11  H01242434   9.333  10.506   9.323
   628G11  C0BN42435   9.327  10.719   9.357
   628G11  C0CG42436   9.207  10.719   9.423
   628G11  C0CF42437   9.126  10.602   9.431
   628G11  H01342438   9.152  10.503   9.395
   628G11  O00G42439   8.999  10.594   9.487
   628G11  C0AA42440   8.967  10.706   9.553
   628G11  C0A942441   8.838  10.707   9.610
   628G11  H00U42442   8.771  10.624   9.595
   628G11  C0A842443   8.798  10.810   9.697
   628G11  H00V42444   8.700  10.793   9.739
   628G11  C0A742445   8.870  10.930   9.719
   628G11  C0A642446   8.999  10.937   9.644
   628G11  C0A542447   9.091  11.045   9.648
   628G11  C0A442448   9.060  11.163   9.723
   628G11  C0A342449   8.955  11.228   9.801
   628G11  C0A242450   8.829  11.172   9.811
   628G11  C0A142451   8.738  11.222   9.909
   628G11  C0A042452   8.703  11.357   9.958
   628G11  C09Z42453   8.589  11.365  10.035
   628G11  C09Y42454   8.537  11.494  10.061
   628G11  H00Y42455   8.452  11.510  10.126
   628G11  C09X42456   8.615  11.607  10.033
   628G11  C09W42457   8.554  11.733  10.064
   628G11  H00R42458   8.459  11.734  10.116
   628G11  C0AX42459   8.615  11.858  10.042
   628G11  H00S42460   8.569  11.951  10.071
   628G11  C0AW42461   8.742  11.848   9.982
   628G11  H00T42462   8.800  11.938   9.973
   628G11  C0AN42463   8.807  11.726   9.951
   628G11  C0AO42464   8.940  11.716   9.911
   628G11  C0AM42465   8.736  11.603   9.973
   628G11  C0B242466   8.512  11.259  10.088
   628G11  O00D42467   8.416  11.276  10.162
   628G11  C0B142468   8.551  11.127  10.049
   628G11  H00W42469   8.500  11.047  10.100
   628G11  C0AL42470   8.787  11.473   9.934
   628G11  C0AK42471   8.922  11.473   9.896
   628G11  C0B042472   8.654  11.113   9.956
   628G11  C0AZ42473   8.693  10.998   9.885
   628G11  H00X42474   8.647  10.900   9.893
   628G11  C0AJ42475   8.992  11.351   9.847
   628G11  C0AH42476   9.167  11.250   9.740
   628G11  C0AE42477   9.217  11.046   9.575
   628G11  C0AD42478   9.244  10.940   9.494
   628G11  C0AY42479   8.802  11.033   9.800
   628G11  C0AB42480   9.044  10.827   9.568
   628G11  C0AC42481   9.161  10.830   9.494
   628G11  C0BM42482   9.391  10.839   9.335
   628G11  C0CM42483   9.494  10.495   9.109
   628G11  C09M42484   9.612  10.502   9.034
   628G11  C09842485   9.669  10.370   9.012
   628G11  C08R42486   9.764  10.315   8.917
   628G11  C08Q42487   9.805  10.181   8.935
   628G11  C08P42488   9.863  10.075   8.852
   628G11  C08Y42489   9.843   9.937   8.893
   628G11  C09742490   9.729   9.917   8.976
   628G11  C09642491   9.651   9.813   8.926
   628G11  C09042492   9.744   9.743   8.844
   628G11  C09542493   9.712   9.627   8.768
   628G11  C09442494   9.811   9.548   8.710
   628G11  C08J42495   9.935   9.591   8.654
   628G11  C08I42496   9.954   9.514   8.535
   628G11  C08H42497  10.025   9.593   8.437
   628G11  C08G42498  10.018   9.733   8.482
   628G11  C08F42499  10.052   9.867   8.428
   628G11  C08E42500  10.124   9.882   8.306
   628G11  C05942501  10.139   9.783   8.203
   628G11  C05842502  10.196   9.815   8.081
   628G11  C05742503  10.225   9.722   7.979
   628G11  C05642504  10.176   9.590   8.000
   628G11  C05542505  10.096   9.553   8.105
   628G11  C05442506  10.129   9.418   8.129
   628G11  C05342507  10.219   9.363   8.029
   628G11  C05242508  10.287   9.236   8.029
   628G11  C05142509  10.265   9.142   8.140
   628G11  C05U42510  10.200   9.161   8.274
   628G11  C05T42511  10.145   9.276   8.334
   628G11  C06K42512  10.088   9.235   8.464
   628G11  H00J42513  10.028   9.300   8.526
   628G11  C06L42514  10.122   9.101   8.487
   628G11  H00I42515  10.094   9.043   8.574
   628G11  C05V42516  10.194   9.060   8.369
   628G11  C06J42517  10.245   8.933   8.346
   628G11  H00K42518  10.231   8.852   8.415
   628G11  C05X42519  10.312   8.906   8.226
   628G11  C06I42520  10.378   8.783   8.207
   628G11  H00L42521  10.364   8.700   8.274
   628G11  C04Z42522  10.474   8.767   8.105
   628G11  C06H42523  10.561   8.658   8.110
   628G11  H00H42524  10.550   8.588   8.192
   628G11  C04Y42525  10.675   8.657   8.035
   628G11  C06G42526  10.777   8.567   8.071
   628G11  O00942527  10.773   8.490   8.169
   628G11  O00842528  10.900   8.581   8.007
   628G11  C04P42529  10.913   8.666   7.902
   628G11  C04J42530  11.029   8.662   7.817
   628G11  C04Q42531  11.145   8.579   7.832
   628G11  H00E42532  11.142   8.509   7.914
   628G11  C04M42533  11.256   8.591   7.749
   628G11  C04R42534  11.370   8.512   7.763
   628G11  H00F42535  11.387   8.438   7.839
   628G11  C04S42536  11.471   8.531   7.667
   628G11  H00G42537  11.568   8.485   7.679
   628G11  O00742538  11.462   8.613   7.557
   628G11  C03V42539  11.361   8.700   7.559
   628G11  C03U42540  11.364   8.798   7.459
   628G11  O00642541  11.458   8.798   7.364
   628G11  C03F42542  11.495   8.919   7.317
   628G11  C03E42543  11.414   9.031   7.326
   628G11  C03D42544  11.293   9.016   7.396
   628G11  C03C42545  11.207   9.124   7.403
   628G11  C03B42546  11.251   9.239   7.334
   628G11  C03A42547  11.176   9.356   7.347
   628G11  C03942548  11.049   9.362   7.416
   628G11  C03842549  11.014   9.498   7.405
   628G11  C03742550  11.114   9.557   7.323
   628G11  C03642551  11.099   9.684   7.282
   628G11  C02R42552  11.184   9.762   7.215
   628G11  C03542553  11.118   9.892   7.222
   628G11  C03R42554  11.002   9.893   7.288
   628G11  C03S42555  10.957  10.002   7.361
   628G11  C04942556  10.867   9.970   7.458
   628G11  C04842557  10.840   9.833   7.485
   628G11  C03P42558  10.912   9.721   7.438
   628G11  C04742559  10.724   9.825   7.569
   628G11  C04642560  10.662   9.707   7.601
   628G11  C04542561  10.699   9.575   7.588
   628G11  C03T42562  10.808   9.511   7.535
   628G11  C04442563  10.796   9.374   7.548
   628G11  C04342564  10.671   9.351   7.605
   628G11  C04242565  10.651   9.223   7.662
   628G11  C04142566  10.781   9.158   7.614
   628G11  C04042567  10.799   9.019   7.629
   628G11  C03Z42568  10.931   8.960   7.611
   628G11  C04H42569  10.932   8.843   7.689
   628G11  C04G42570  10.812   8.830   7.756
   628G11  C03N42571  11.059   8.996   7.546
   628G11  C03Y42572  11.160   8.896   7.552
   628G11  C03X42573  11.149   8.778   7.632
   628G11  C04F42574  10.735   8.935   7.728
   628G11  C04E42575  10.619   8.956   7.815
   628G11  C04O42576  10.595   8.854   7.914
   628G11  C04D42577  10.533   9.064   7.824
   628G11  C04V42578  10.441   9.078   7.927
   628G11  C04W42579  10.415   8.979   8.020
   628G11  C04C42580  10.538   9.182   7.750
   628G11  C04L42581  10.426   9.264   7.803
   628G11  C04U42582  10.405   9.407   7.771
   628G11  C05Q42583  10.315   9.494   7.834
   628G11  C05P42584  10.344   9.625   7.796
   628G11  C04T42585  10.457   9.624   7.715
   628G11  C04B42586  10.495   9.494   7.701
   628G11  C03M42587  10.868   9.250   7.545
   628G11  C04A42588  10.615   9.473   7.637
   628G11  C05H42589  10.539   9.735   7.671
   628G11  C05G42590  10.539   9.876   7.696
   628G11  C05F42591  10.438   9.948   7.760
   628G11  C05E42592  10.464  10.080   7.810
   628G11  C05L42593  10.567  10.190   7.795
   628G11  C05K42594  10.669  10.187   7.699
   628G11  C05J42595  10.713  10.073   7.621
   628G11  C06642596  10.734  10.315   7.675
   628G11  C06542597  10.706  10.431   7.755
   628G11  C06442598  10.611  10.425   7.855
   628G11  C06N42599  10.776  10.549   7.737
   628G11  C06942600  10.872  10.560   7.638
   628G11  C06P42601  10.950  10.676   7.624
   628G11  C06R42602  11.060  10.682   7.534
   628G11  C06B42603  11.092  10.571   7.459
   628G11  C06S42604  11.208  10.569   7.381
   628G11  C02G42605  11.242  10.464   7.300
   628G11  C02F42606  11.360  10.468   7.222
   628G11  C02742607  11.444  10.577   7.228
   628G11  C02642608  11.561  10.578   7.155
   628G11  C00E42609  11.642  10.693   7.157
   628G11  C00D42610  11.762  10.686   7.089
   628G11  C00C42611  11.849  10.793   7.102
   628G11  C00B42612  11.824  10.900   7.191
   628G11  C01542613  11.700  10.909   7.258
   628G11  C07F42614  11.678  11.012   7.346
   628G11  C07E42615  11.556  11.010   7.412
   628G11  C06W42616  11.465  10.903   7.397
   628G11  C06V42617  11.493  10.798   7.315
   628G11  C06X42618  11.351  10.896   7.471
   628G11  C07B42619  11.318  11.006   7.552
   628G11  C07C42620  11.410  11.112   7.570
   628G11  C0FU42621  11.382  11.217   7.658
   628G11  C0F742622  11.476  11.316   7.684
   628G11  C0F642623  11.441  11.423   7.772
   628G11  C0F842624  11.536  11.519   7.793
   628G11  C0F942625  11.510  11.628   7.884
   628G11  C0FA42626  11.601  11.731   7.894
   628G11  C0FZ42627  11.724  11.713   7.835
   628G11  C0G042628  11.823  11.808   7.869
   628G11  C0GD42629  11.802  11.918   7.951
   628G11  C0FC42630  11.673  11.935   8.002
   628G11  C0GH42631  11.641  12.045   8.085
   628G11  C0EY42632  11.511  12.062   8.135
   628G11  C0EX42633  11.476  12.165   8.222
   628G11  C0EW42634  11.342  12.177   8.263
   628G11  C0FR42635  11.307  12.280   8.354
   628G11  H01D42636  11.208  12.297   8.393
   628G11  C0FS42637  11.399  12.368   8.395
   628G11  H01C42638  11.361  12.445   8.461
   628G11  C0GJ42639  11.532  12.361   8.347
   628G11  H01N42640  11.598  12.438   8.384
   628G11  C0EV42641  11.246  12.091   8.209
   628G11  C0FT42642  11.110  12.111   8.228
   628G11  H01E42643  11.064  12.207   8.248
   628G11  C0EU42644  11.292  11.973   8.157
   628G11  C0ET42645  11.207  11.865   8.151
   628G11  C0EI42646  11.231  11.749   8.081
   628G11  C0F142647  11.352  11.743   8.015
   628G11  C0F042648  11.448  11.849   8.030
   628G11  C0EH42649  11.133  11.644   8.079
   628G11  C0EG42650  11.006  11.650   8.148
   628G11  C0EJ42651  11.164  11.541   7.994
   628G11  C0F342652  11.287  11.534   7.924
   628G11  C0EK42653  11.073  11.437   7.977
   628G11  C0EL42654  10.951  11.429   8.062
   628G11  C0EM42655  10.894  11.301   8.049
   628G11  C0EN42656  10.929  11.212   7.947
   628G11  C07I42657  10.853  11.095   7.953
   628G11  C07442658  10.876  10.995   7.864
   628G11  C07342659  10.792  10.885   7.874
   628G11  C07242660  10.819  10.779   7.797
   628G11  C07542661  10.977  11.007   7.775
   628G11  C07642662  11.052  11.121   7.771
   628G11  C07842663  11.168  11.119   7.699
   628G11  C07G42664  11.007  10.898   7.693
   628G11  C07042665  11.118  10.902   7.613
   628G11  C07Z42666  10.769  11.099   8.059
   628G11  C07742667  11.029  11.232   7.855
   628G11  C0EO42668  11.109  11.336   7.880
   628G11  C0F442669  11.225  11.333   7.810
   628G11  C0EQ42670  11.081  11.874   8.197
   628G11  C0FQ42671  11.575  12.257   8.267
   628G11  C0GI42672  11.707  12.234   8.229
   628G11  H01L42673  11.782  12.294   8.279
   628G11  C0EZ42674  11.416  11.965   8.103
   628G11  C0GG42675  11.739  12.133   8.134
   628G11  C0GF42676  11.867  12.107   8.087
   628G11  H01M42677  11.948  12.165   8.129
   628G11  C0GE42678  11.904  12.008   7.992
   628G11  H01K42679  12.003  12.007   7.951
   628G11  O00J42680  11.946  11.796   7.819
   628G11  C0GA42681  11.976  11.696   7.734
   628G11  C0G942682  12.101  11.686   7.678
   628G11  H01H42683  12.173  11.757   7.713
   628G11  C0G842684  12.140  11.582   7.595
   628G11  C0G742685  12.272  11.568   7.533
   628G11  H01I42686  12.343  11.649   7.536
   628G11  O00I42687  12.304  11.457   7.463
   628G11  C0G642688  12.212  11.359   7.439
   628G11  H01J42689  12.256  11.262   7.418
   628G11  C02D42690  12.076  11.378   7.480
   628G11  C02C42691  11.977  11.278   7.447
   628G11  C01742692  12.000  11.185   7.345
   628G11  C01642693  11.899  11.091   7.309
   628G11  O00142694  12.116  11.183   7.268
   628G11  C01842695  12.156  11.069   7.206
   628G11  C00942696  12.061  10.981   7.156
   628G11  C00842697  12.083  10.860   7.076
   628G11  C00742698  12.204  10.794   7.020
   628G11  C00642699  12.337  10.833   7.051
   628G11  C00542700  12.447  10.753   7.024
   628G11  C00442701  12.466  10.623   6.963
   628G11  C00342702  12.366  10.521   6.917
   628G11  C00242703  12.410  10.389   6.882
   628G11  C00P42704  12.325  10.280   6.869
   628G11  C00O42705  12.373  10.151   6.855
   628G11  C00N42706  12.294  10.039   6.869
   628G11  C01042707  12.345   9.913   6.859
   628G11  C01142708  12.273   9.795   6.885
   628G11  C01Q42709  12.337   9.672   6.893
   628G11  C01U42710  12.468   9.659   6.860
   628G11  C01242711  12.538   9.773   6.827
   628G11  H00042712  12.645   9.763   6.811
   628G11  C01V42713  12.525   9.530   6.877
   628G11  H00742714  12.631   9.521   6.856
   628G11  O00542715  12.457   9.415   6.911
   628G11  C01W42716  12.322   9.432   6.939
   628G11  C03142717  12.245   9.324   6.979
   628G11  C03242718  12.115   9.336   7.030
   628G11  H00A42719  12.064   9.257   7.083
   628G11  C03342720  12.056   9.468   7.028
   628G11  H00B42721  11.966   9.491   7.083
   628G11  C01O42722  12.125   9.575   6.965
   628G11  C01N42723  12.065   9.697   6.946
   628G11  C01M42724  11.914   9.717   6.964
   628G11  C01L42725  11.785   9.646   7.009
   628G11  C01K42726  11.691   9.749   7.018
   628G11  C01Y42727  11.565   9.744   7.065
   628G11  C02I42728  11.521   9.628   7.110
   628G11  C02N42729  11.392   9.627   7.172
   628G11  C02M42730  11.346   9.502   7.220
   628G11  C02L42731  11.420   9.382   7.212
   628G11  C02K42732  11.542   9.389   7.135
   628G11  C02U42733  11.608   9.264   7.109
   628G11  C02V42734  11.572   9.151   7.187
   628G11  C03H42735  11.654   9.034   7.184
   628G11  H00C42736  11.750   9.038   7.133
   628G11  C02W42737  11.707   9.259   7.024
   628G11  C02X42738  11.758   9.384   6.978
   628G11  C02Y42739  11.839   9.351   6.868
   628G11  H00842740  11.911   9.410   6.813
   628G11  C02Z42741  11.837   9.200   6.853
   628G11  O00442742  11.898   9.127   6.780
   628G11  O00342743  11.752   9.153   6.956
   628G11  C02J42744  11.599   9.511   7.092
   628G11  C01Z42745  11.496   9.863   7.062
   628G11  C02042746  11.553   9.986   7.023
   628G11  C01I42747  11.680   9.989   6.973
   628G11  C01H42748  11.755  10.101   6.941
   628G11  C00K42749  11.889  10.090   6.914
   628G11  C01S42750  11.950   9.962   6.917
   628G11  C01442751  12.086   9.943   6.905
   628G11  C00J42752  11.966  10.204   6.904
   628G11  C00I42753  11.916  10.326   6.935
   628G11  C00H42754  11.776  10.340   6.969
   628G11  C00G42755  11.727  10.460   7.026
   628G11  C00S42756  11.997  10.437   6.941
   628G11  C00T42757  11.935  10.556   6.976
   628G11  C00U42758  12.018  10.666   6.975
   628G11  C00R42759  12.136  10.423   6.923
   628G11  C00L42760  12.103  10.186   6.897
   628G11  C02842761  11.698  10.227   6.970
   628G11  C02342762  11.568  10.231   7.025
   628G11  C02442763  11.521  10.350   7.085
   628G11  C02142764  11.499  10.110   7.046
   628G11  C02242765  11.372  10.115   7.112
   628G11  C02H42766  11.327  10.235   7.170
   628G11  C03042767  11.205  10.239   7.242
   628G11  C03442768  11.129  10.124   7.251
   628G11  C02P42769  11.309   9.993   7.142
   628G11  C02B42770  11.373   9.869   7.125
   628G11  C01J42771  11.740   9.864   6.957
   628G11  C01X42772  11.722   9.517   7.027
   628G11  C01T42773  11.873   9.846   6.932
   628G11  H00942774  12.289   9.226   6.969
   628G11  C01P42775  12.260   9.562   6.930
   628G11  C01R42776  12.140   9.809   6.907
   628G11  C00Z42777  12.481   9.902   6.825
   628G11  O00042778  12.560  10.011   6.809
   628G11  C00M42779  12.162  10.055   6.883
   628G11  C00Y42780  12.514  10.131   6.836
   628G11  C01342781  12.598  10.240   6.839
   628G11  H00142782  12.705  10.228   6.831
   628G11  C00Q42783  12.189  10.297   6.896
   628G11  C00142784  12.547  10.367   6.868
   628G11  C00042785  12.639  10.467   6.899
   628G11  H00642786  12.743  10.438   6.905
   628G11  C00W42787  12.225  10.534   6.934
   628G11  C01G42788  12.602  10.593   6.943
   628G11  H00542789  12.687  10.655   6.966
   628G11  C01C42790  12.555  10.827   7.079
   628G11  H00242791  12.660  10.803   7.086
   628G11  C01B42792  12.508  10.955   7.129
   628G11  C01D42793  12.586  11.063   7.187
   628G11  H00342794  12.693  11.047   7.183
   628G11  C01E42795  12.509  11.162   7.243
   628G11  H00442796  12.565  11.242   7.291
   628G11  O00242797  12.369  11.164   7.242
   628G11  C01A42798  12.368  10.957   7.116
   628G11  C00V42799  12.161  10.664   6.969
   628G11  C01942800  12.296  11.062   7.181
   628G11  C02E42801  11.851  11.288   7.509
   628G11  C0FX42802  11.822  11.397   7.588
   628G11  C0FW42803  11.695  11.402   7.646
   628G11  C0GB42804  11.912  11.496   7.615
   628G11  C0G342805  11.755  11.199   7.473
   628G11  C07H42806  11.630  11.205   7.532
   628G11  C0GC42807  12.044  11.485   7.564
   628G11  C0G242808  11.880  11.601   7.697
   628G11  C0G142809  11.750  11.609   7.751
   628G11  C0FB42810  11.577  11.842   7.977
   628G11  C0F242811  11.385  11.632   7.938
   628G11  C0FY42812  11.656  11.512   7.725
   628G11  C0F542813  11.318  11.432   7.836
   628G11  C0FV42814  11.598  11.307   7.621
   628G11  C07942815  11.258  11.227   7.719
   628G11  C07A42816  11.200  11.008   7.624
   628G11  C06Y42817  11.266  10.786   7.465
   628G11  C07D42818  11.530  11.115   7.503
   628G11  C01F42819  11.780  11.104   7.372
   628G11  C00A42820  11.930  10.990   7.214
   628G11  C00X42821  11.974  10.779   7.044
   628G11  C00F42822  11.808  10.571   7.024
   628G11  C02942823  11.613  10.802   7.241
   628G11  C02542824  11.602  10.461   7.087
   628G11  C06U42825  11.406  10.686   7.305
   628G11  C02A42826  11.404  10.349   7.164
   628G11  C05Y42827  11.164  10.351   7.308
   628G11  C05Z42828  11.053  10.348   7.391
   628G11  C06042829  10.981  10.226   7.415
   628G11  C06242830  10.871  10.210   7.502
   628G11  C06T42831  11.289  10.683   7.377
   628G11  C06A42832  11.010  10.458   7.463
   628G11  C06Z42833  11.147  10.790   7.537
   628G11  C06Q42834  10.921  10.786   7.703
   628G11  C06842835  10.903  10.448   7.557
   628G11  C06742836  10.835  10.325   7.577
   628G11  C06342837  10.546  10.301   7.876
   628G11  C06C42838  10.464  10.294   7.990
   628G11  C06D42839  10.384  10.183   8.019
   628G11  C06E42840  10.315  10.156   8.135
   628G11  C07Q42841  10.294  10.261   8.223
   628G11  C07P42842  10.361  10.387   8.189
   628G11  C07T42843  10.339  10.495   8.275
   628G11  C07U42844  10.401  10.613   8.245
   628G11  C07V42845  10.380  10.716   8.328
   628G11  C08442846  10.288  10.708   8.437
   628G11  C08C42847  10.225  10.589   8.458
   628G11  C08B42848  10.121  10.584   8.551
   628G11  C08A42849  10.071  10.461   8.577
   628G11  C08942850  10.105  10.343   8.516
   628G11  C08842851  10.045  10.223   8.554
   628G11  C08742852  10.072  10.104   8.479
   628G11  C08642853  10.157  10.120   8.362
   628G11  C08X42854   9.958  10.210   8.665
   628G11  C08T42855   9.916  10.340   8.722
   628G11  C08D42856  10.193  10.351   8.412
   628G11  C08U42857   9.967  10.455   8.667
   628G11  C08V42858   9.921  10.569   8.725
   628G11  C0CY42859   9.983  10.691   8.709
   628G11  C0CX42860   9.940  10.792   8.786
   628G11  C0CW42861  10.006  10.906   8.771
   628G11  C0CV42862  10.112  10.922   8.686
   628G11  C0D442863  10.152  10.812   8.606
   628G11  C0CU42864  10.177  11.042   8.664
   628G11  C0CT42865  10.132  11.157   8.729
   628G11  C0CS42866  10.034  11.140   8.824
   628G11  C0D642867  10.272  11.042   8.565
   628G11  C0EC42868  10.315  10.935   8.490
   628G11  C07X42869  10.404  10.944   8.386
   628G11  C0DL42870  10.322  11.165   8.533
   628G11  C0DK42871  10.416  11.176   8.431
   628G11  C0DN42872  10.443  11.305   8.424
   628G11  C0D842873  10.297  11.285   8.596
   628G11  C08W42874   9.835  10.532   8.825
   628G11  C0CQ42875   9.781  10.646   8.909
   628G11  C09342876  10.085  10.697   8.618
   628G11  C09242877  10.256  10.818   8.515
   628G11  C08542878  10.254  10.473   8.382
   628G11  C07S42879  10.219  10.244   8.336
   628G11  C06F42880  10.248  10.035   8.157
   628G11  C07O42881  10.436  10.396   8.072
   628G11  C07N42882  10.505  10.517   8.049
   628G11  C05D42883  10.373  10.091   7.915
   628G11  C05C42884  10.303   9.974   7.939
   628G11  C05N42885  10.344   9.881   7.846
   628G11  C05M42886  10.660   9.937   7.636
   628G11  C05I42887  10.814  10.082   7.528
   628G11  C06142888  11.021  10.118   7.338
   628G11  C02Q42889  11.184  10.012   7.200
   628G11  C02O42890  11.317   9.748   7.171
   628G11  C03Q42891  11.001   9.764   7.339
   628G11  C03O42892  10.908   9.581   7.466
   628G11  C03L42893  10.998   9.242   7.482
   628G11  C02S42894  11.219   9.478   7.290
   628G11  C02T42895  11.371   9.255   7.263
   628G11  C03K42896  11.085   9.120   7.480
   628G11  C03I42897  11.453   9.150   7.258
   628G11  C03G42898  11.612   8.917   7.249
   628G11  H00D42899  11.683   8.837   7.238
   628G11  C03J42900  11.267   8.904   7.466
   628G11  C03W42901  11.252   8.691   7.649
   628G11  C04I42902  11.044   8.760   7.715
   628G11  C04K42903  10.808   8.742   7.863
   628G11  C04N42904  10.690   8.751   7.938
   628G11  C04X42905  10.487   8.863   8.006
   628G11  C05042906  10.327   9.009   8.130
   628G11  C05W42907  10.372   9.199   7.924
   628G11  C05S42908  10.132   9.406   8.272
   628G11  C05R42909  10.234   9.473   7.942
   628G11  C05O42910  10.303   9.743   7.864
   628G11  C05B42911  10.240   9.938   8.061
   628G11  C05A42912  10.108   9.642   8.216
   628G11  C07R42913  10.176  10.009   8.279
   628G11  C08N42914  10.027   9.978   8.516
   628G11  C08M42915   9.964   9.967   8.645
   628G11  C08L42916   9.922   9.839   8.687
   628G11  C09142917  10.101   9.544   8.323
   628G11  C09K42918   9.831   9.438   8.504
   628G11  H00M42919   9.795   9.408   8.407
   628G11  C08K42920   9.955   9.725   8.606
   628G11  C09J42921   9.746   9.456   8.622
   628G11  C09I42922   9.606   9.493   8.624
   628G11  C09L42923   9.498   9.448   8.543
   628G11  H00N42924   9.514   9.393   8.452
   628G11  C09Q42925   9.372   9.491   8.582
   628G11  H00O42926   9.292   9.467   8.513
   628G11  O00B42927   9.347   9.576   8.688
   628G11  C09G42928   9.459   9.628   8.759
   628G11  C09F42929   9.420   9.726   8.853
   628G11  O00A42930   9.285   9.732   8.865
   628G11  C09P42931   9.234   9.813   8.959
   628G11  H00P42932   9.185   9.768   9.043
   628G11  C09O42933   9.305   9.941   8.987
   628G11  C09D42934   9.447   9.935   8.984
   628G11  C09C42935   9.540  10.036   9.032
   628G11  C09N42936   9.521  10.180   9.062
   628G11  C09T42937   9.403  10.251   9.043
   628G11  C09S42938   9.277  10.188   9.046
   628G11  C0CP42939   9.194  10.291   9.083
   628G11  C0CN42940   9.250  10.416   9.108
   628G11  C0CO42941   9.166  10.522   9.131
   628G11  H01442942   9.204  10.623   9.128
   628G11  C0CZ42943   9.038  10.485   9.181
   628G11  H01542944   8.973  10.566   9.211
   628G11  C0D042945   8.982  10.355   9.178
   628G11  C0G542946   8.857  10.314   9.225
   628G11  H01F42947   8.795  10.383   9.280
   628G11  C0G442948   8.807  10.195   9.194
   628G11  H01G42949   8.705  10.172   9.223
   628G11  O00H42950   8.873  10.093   9.136
   628G11  C0D242951   9.000  10.131   9.102
   628G11  C09V42952   9.081  10.028   9.052
   628G11  H00Q42953   9.033   9.931   9.046
   628G11  C0D142954   9.059  10.256   9.119
   628G11  C09R42955   9.223  10.050   9.029
   628G11  C09H42956   9.584   9.588   8.725
   628G11  C09E42957   9.505   9.817   8.928
   628G11  C09B42958   9.674  10.021   9.044
   628G11  C08Z42959   9.839   9.839   8.800
   628G11  C08O42960   9.925  10.086   8.720
   628G11  C09A42961   9.743  10.147   9.059
   628G11  C08S42962   9.823  10.390   8.823
   628G11  C09942963   9.646  10.248   9.089
   628G11  C09U42964   9.391  10.393   9.095
   628G11  C0BO42965   9.498  10.843   9.243
   628G11  C0CL42966   9.677  10.630   8.998
   628G11  C0D342967   9.842  10.770   8.885
   628G11  C0D542968   9.975  11.016   8.851
   628G11  C0BR42969   9.667  10.971   9.137
   628G11  C0BQ42970   9.571  10.960   9.234
   628G11  C0BL42971   9.356  10.951   9.407
   628G11  C0AF42972   9.294  11.162   9.572
   628G11  C0BH42973   9.574  11.306   9.373
   628G11  C0BG42974   9.623  11.432   9.350
   628G11  C0BD42975   9.513  11.525   9.546
   628G11  C0AG42976   9.279  11.262   9.656
   628G11  C0AI42977   9.125  11.362   9.809
   628G11  C0AV42978   9.000  11.588   9.893
   628G11  C0BB42979   9.344  11.711   9.821
   628G11  O00C42980   9.021  11.833   9.887
   628G11  C0BC42981   9.377  11.842   9.803
   628G11  C0B942982   9.475  11.630   9.629
   628G11  O00E42983   9.638  11.908   9.446
   628G11  C0CA42984   9.738  11.923   9.352
   628G11  O00F42985   9.779  12.042   9.331
   628G11  C0BF42986   9.588  11.543   9.434
   628G11  C0C542987   9.788  11.805   9.290
   628G11  C0C442988   9.893  11.825   9.197
   628G11  H01142989   9.946  11.918   9.185
   628G11  C0C842990   9.714  11.446   9.248
   628G11  C0C242991   9.933  11.706   9.122
   628G11  C0C342992  10.037  11.713   9.021
   628G11  C0DY42993  10.119  11.824   8.982
   628G11  H01642994  10.107  11.927   9.014
   628G11  C0DX42995  10.208  11.782   8.881
   628G11  C0DW42996  10.292  11.879   8.819
   628G11  C0BY42997   9.861  11.347   9.082
   628G11  C0DB42998  10.083  11.604   8.947
   628G11  C0CC42999  10.009  11.246   8.909
   628G11  C0D743000  10.199  11.285   8.707
   628G11  C0DZ43001  10.187  11.636   8.855
   628G11  C0DM43002  10.379  11.381   8.528
   628G11  C0DQ43003  10.416  11.708   8.665
   628G11  C0DV43004  10.395  11.834   8.735
   628G11  C0E043005  10.334  12.006   8.867
   628G11  C0FO43006  10.537  12.236   8.708
   628G11  C0E343007  10.265  12.133   8.870
   628G11  H01743008  10.158  12.142   8.862
   628G11  C0GV43009  10.466  12.354   8.701
   628G11  C0ES43010  10.590  12.187   8.584
   628G11  C0GQ43011  10.560  12.498   8.381
   628G11  C0FJ43012  10.757  12.307   8.135
   628G11  C0ED43013  10.714  12.111   8.343
   628G11  C0ER43014  11.030  11.999   8.221
   628G11  C0EP43015  10.984  11.777   8.209
   628G11  C0E643016  10.681  11.869   8.424
   628G11  C0DE43017  10.609  11.571   8.376
   628G11  C0EA43018  10.913  11.544   8.139
   628G11  C0DF43019  10.583  11.461   8.288
   628G11  C08043020  10.794  11.225   8.122
   628G11  C0DO43021  10.528  11.340   8.320
   628G11  C0DJ43022  10.459  11.065   8.357
   628G11  C07K43023  10.680  10.984   8.070
   628G11  C07W43024  10.444  10.837   8.307
   628G11  C08343025  10.488  10.627   8.135
   628G11  C07J43026  10.699  10.878   7.977
   628G11  C06O43027  10.749  10.659   7.814
   628G11  C06M43028  10.589  10.534   7.941
   638G11  C07143029   0.748   0.126   5.084
   638G11  C07L43030   0.678   0.078   4.969
   638G11  C07M43031   0.539   0.077   4.969
   638G11  C07Y43032   0.474   0.050   4.849
   638G11  C08143033   0.538   0.015   4.723
   638G11  C08243034   0.458   0.007   4.608
   638G11  C0DI43035   0.499  -0.032   4.471
   638G11  C0DH43036   0.622  -0.072   4.409
   638G11  C0DG43037   0.600  -0.109   4.268
   638G11  C0E943038   0.674  -0.067   4.151
   638G11  C0E843039   0.571  -0.047   4.048
   638G11  C0E743040   0.573  -0.065   3.901
   638G11  C0EB43041   0.687  -0.137   3.848
   638G11  C0EF43042   0.702  -0.211   3.724
   638G11  C0EE43043   0.607  -0.263   3.634
   638G11  C0FD43044   0.629  -0.397   3.581
   638G11  C0FE43045   0.717  -0.499   3.631
   638G11  H01B43046   0.780  -0.472   3.715
   638G11  C0FF43047   0.728  -0.628   3.587
   638G11  H01A43048   0.806  -0.695   3.621
   638G11  C0FG43049   0.648  -0.659   3.479
   638G11  H01843050   0.649  -0.760   3.440
   638G11  C0FH43051   0.552  -0.563   3.420
   638G11  C0FI43052   0.467  -0.593   3.307
   638G11  H01943053   0.466  -0.691   3.261
   638G11  O00K43054   0.382  -0.500   3.251
   638G11  C0FL43055   0.360  -0.388   3.319
   638G11  C0FK43056   0.444  -0.347   3.429
   638G11  C0FM43057   0.423  -0.215   3.483
   638G11  C0FN43058   0.326  -0.128   3.425
   638G11  C0FP43059   0.245  -0.178   3.327
   638G11  C0GO43060   0.135  -0.112   3.276
   638G11  C0GN43061   0.034  -0.171   3.202
   638G11  C0GR43062   0.054  -0.300   3.146
   638G11  C0GS43063  -0.031  -0.364   3.055
   638G11  H01Q43064  -0.014  -0.466   3.026
   638G11  C0GT43065  -0.149  -0.289   3.023
   638G11  H01O43066  -0.221  -0.333   2.956
   638G11  C0GU43067  -0.171  -0.162   3.080
   638G11  H01P43068  -0.263  -0.115   3.048
   638G11  O00L43069   0.173  -0.361   3.180
   638G11  C0GM43070  -0.082  -0.100   3.173
   638G11  C0GL43071  -0.106   0.022   3.244
   638G11  H01R43072  -0.206   0.061   3.239
   638G11  C0GK43073  -0.006   0.083   3.312
   638G11  C0GP43074   0.005   0.195   3.398
   638G11  C0E243075   0.143   0.203   3.447
   638G11  C0E143076   0.131   0.239   3.586
   638G11  C0DU43077   0.199   0.180   3.695
   638G11  C0DT43078   0.319   0.109   3.702
   638G11  C0E443079   0.368   0.029   3.604
   638G11  C0E543080   0.461  -0.055   3.660
   638G11  C0DS43081   0.368   0.070   3.827
   638G11  C0DR43082   0.286   0.090   3.940
   638G11  C0DD43083   0.313   0.040   4.071
   638G11  C0DC43084   0.196   0.069   4.146
   638G11  C0DP43085   0.094   0.131   4.068
   638G11  C0DA43086  -0.051   0.158   4.100
   638G11  C0D943087  -0.127   0.150   4.227
   638G11  C0CR43088  -0.271   0.168   4.236
   638G11  C0C043089  -0.347   0.176   4.123
   638G11  C0BZ43090  -0.485   0.177   4.113
   638G11  C0C143091  -0.551   0.198   3.992
   638G11  C0C743092  -0.694   0.179   3.991
   638G11  C0C643093  -0.763   0.177   3.867
   638G11  C0C943094  -0.894   0.161   3.870
   638G11  C0B843095  -0.965   0.160   3.749
   638G11  C0B743096  -1.102   0.141   3.748
   638G11  C0B643097  -1.202   0.158   3.643
   638G11  C0B543098  -1.195   0.266   3.552
   638G11  H00Z43099  -1.099   0.311   3.529
   638G11  C0B443100  -1.330   0.292   3.506
   638G11  H01043101  -1.372   0.360   3.433
   638G11  C0B343102  -1.419   0.203   3.582
   638G11  C0AP43103  -1.547   0.198   3.657
   638G11  C0AQ43104  -1.521   0.113   3.767
   638G11  C0AR43105  -1.592   0.133   3.887
   638G11  C0AS43106  -1.511   0.103   3.996
   638G11  C0AT43107  -1.373   0.077   4.000
   638G11  C0BA43108  -1.305   0.084   3.882
   638G11  C0AU43109  -1.302   0.090   4.119
   638G11  C0BE43110  -1.167   0.110   4.114
   638G11  C0BI43111  -1.106   0.151   4.235
   638G11  C0BJ43112  -1.179   0.167   4.354
   638G11  C0BK43113  -1.107   0.191   4.466
   638G11  C0BW43114  -0.969   0.200   4.468
   638G11  C0BV43115  -0.900   0.183   4.352
   638G11  C0BU43116  -0.761   0.192   4.357
   638G11  C0BX43117  -0.695   0.189   4.231
   638G11  C0BT43118  -0.695   0.210   4.476
   638G11  C0CD43119  -0.557   0.201   4.477
   638G11  C0CB43120  -0.482   0.181   4.355
   638G11  C0CE43121  -0.491   0.211   4.595
   638G11  C0CK43122  -0.557   0.241   4.711
   638G11  C0BS43123  -0.698   0.262   4.710
   638G11  C0CJ43124  -0.769   0.281   4.828
   638G11  C0BP43125  -0.907   0.288   4.820
   638G11  C0CI43126  -0.981   0.328   4.935
   638G11  C0CH43127  -1.119   0.304   4.932
   638G11  H01243128  -1.171   0.318   5.025
   638G11  C0BN43129  -1.185   0.266   4.817
   638G11  C0CG43130  -1.327   0.272   4.819
   638G11  C0CF43131  -1.405   0.307   4.936
   638G11  H01343132  -1.365   0.332   5.034
   638G11  O00G43133  -1.541   0.314   4.927
   638G11  C0AA43134  -1.607   0.303   4.811
   638G11  C0A943135  -1.745   0.298   4.822
   638G11  H00U43136  -1.798   0.316   4.914
   638G11  C0A843137  -1.816   0.291   4.700
   638G11  H00V43138  -1.922   0.295   4.718
   638G11  C0A743139  -1.752   0.270   4.572
   638G11  C0A643140  -1.604   0.244   4.570
   638G11  C0A543141  -1.529   0.201   4.461
   638G11  C0A443142  -1.596   0.177   4.334
   638G11  C0A343143  -1.730   0.197   4.268
   638G11  C0A243144  -1.825   0.280   4.323
   638G11  C0A143145  -1.945   0.315   4.251
   638G11  C0A043146  -1.998   0.307   4.116
   638G11  C09Z43147  -2.127   0.357   4.102
   638G11  C09Y43148  -2.183   0.366   3.968
   638G11  H00Y43149  -2.287   0.389   3.950
   638G11  C09X43150  -2.103   0.346   3.855
   638G11  C09W43151  -2.146   0.389   3.729
   638G11  H00R43152  -2.248   0.426   3.724
   638G11  C0AX43153  -2.066   0.398   3.614
   638G11  H00S43154  -2.107   0.439   3.523
   638G11  C0AW43155  -1.930   0.363   3.631
   638G11  H00T43156  -1.859   0.365   3.549
   638G11  C0AN43157  -1.884   0.311   3.755
   638G11  C0AO43158  -1.754   0.263   3.766
   638G11  C0AM43159  -1.965   0.313   3.869
   638G11  C0B243160  -2.221   0.388   4.205
   638G11  O00D43161  -2.334   0.425   4.183
   638G11  C0B143162  -2.170   0.381   4.344
   638G11  H00W43163  -2.228   0.412   4.429
   638G11  C0AL43164  -1.912   0.285   4.001
   638G11  C0AK43165  -1.789   0.214   4.004
   638G11  C0B043166  -2.033   0.356   4.354
   638G11  C0AZ43167  -1.966   0.361   4.481
   638G11  H00X43168  -2.020   0.389   4.570
   638G11  C0AJ43169  -1.718   0.174   4.129
   638G11  C0AH43170  -1.514   0.115   4.233
   638G11  C0AE43171  -1.390   0.191   4.468
   638G11  C0AD43172  -1.319   0.225   4.584
   638G11  C0AY43173  -1.843   0.293   4.466
   638G11  C0AB43174  -1.533   0.267   4.688
   638G11  C0AC43175  -1.396   0.250   4.698
   638G11  C0BM43176  -1.112   0.248   4.705
   638G11  C0CM43177  -0.913   0.381   5.048
   638G11  C09M43178  -0.777   0.328   5.068
   638G11  C09843179  -0.735   0.312   5.206
   638G11  C08R43180  -0.610   0.275   5.278
   638G11  C08Q43181  -0.615   0.277   5.419
   638G11  C08P43182  -0.525   0.300   5.530
   638G11  C08Y43183  -0.586   0.349   5.646
   638G11  C09743184  -0.713   0.400   5.646
   638G11  C09643185  -0.726   0.514   5.723
   638G11  C09043186  -0.609   0.512   5.804
   638G11  C09543187  -0.570   0.618   5.892
   638G11  C09443188  -0.455   0.619   5.974
   638G11  C08J43189  -0.345   0.528   5.985
   638G11  C08I43190  -0.241   0.608   6.032
   638G11  C08H43191  -0.120   0.547   5.987
   638G11  C08G43192  -0.155   0.461   5.870
   638G11  C08F43193  -0.085   0.376   5.774
   638G11  C08E43194   0.049   0.346   5.782
   638G11  C05943195   0.132   0.359   5.898
   638G11  C05843196   0.271   0.316   5.899
   638G11  C05743197   0.358   0.328   6.007
   638G11  C05643198   0.307   0.389   6.125
   638G11  C05543199   0.174   0.401   6.144
   638G11  C05443200   0.156   0.499   6.243
   638G11  C05343201   0.280   0.543   6.294
   638G11  C05243202   0.317   0.660   6.376
   638G11  C05143203   0.209   0.744   6.427
   638G11  C05U43204   0.069   0.740   6.400
   638G11  C05T43205  -0.013   0.674   6.304
   638G11  C06K43206  -0.146   0.710   6.329
   638G11  H00J43207  -0.231   0.668   6.278
   638G11  C06L43208  -0.149   0.814   6.429
   638G11  H00I43209  -0.236   0.871   6.459
   638G11  C05V43210  -0.015   0.825   6.474
   638G11  C06J43211   0.027   0.910   6.574
   638G11  H00K43212  -0.050   0.971   6.619
   638G11  C05X43213   0.163   0.930   6.599
   638G11  C06I43214   0.211   1.015   6.701
   638G11  H00L43215   0.138   1.067   6.761
   638G11  C04Z43216   0.342   1.048   6.717
   638G11  C06H43217   0.383   1.143   6.818
   638G11  H00H43218   0.305   1.181   6.882
   638G11  C04Y43219   0.518   1.179   6.828
   638G11  C06G43220   0.559   1.288   6.914
   638G11  O00943221   0.497   1.338   7.005
   638G11  O00843222   0.690   1.329   6.903
   638G11  C04P43223   0.779   1.274   6.811
   638G11  C04J43224   0.914   1.320   6.792
   638G11  C04Q43225   0.976   1.431   6.851
   638G11  H00E43226   0.918   1.495   6.916
   638G11  C04M43227   1.112   1.464   6.830
   638G11  C04R43228   1.171   1.571   6.897
   638G11  H00F43229   1.118   1.635   6.966
   638G11  C04S43230   1.294   1.611   6.871
   638G11  H00G43231   1.337   1.698   6.919
   638G11  O00743232   1.371   1.535   6.782
   638G11  C03V43233   1.311   1.437   6.709
   638G11  C03U43234   1.384   1.367   6.619
   638G11  O00643235   1.511   1.408   6.596
   638G11  C03F43236   1.584   1.341   6.501
   638G11  C03E43237   1.531   1.244   6.415
   638G11  C03D43238   1.401   1.192   6.439
   638G11  C03C43239   1.358   1.086   6.367
   638G11  C03B43240   1.441   1.039   6.263
   638G11  C03A43241   1.397   0.934   6.191
   638G11  C03943242   1.275   0.870   6.218
   638G11  C03843243   1.266   0.759   6.123
   638G11  C03743244   1.399   0.762   6.064
   638G11  C03643245   1.431   0.666   5.973
   638G11  C02R43246   1.543   0.665   5.893
   638G11  C03543247   1.508   0.564   5.797
   638G11  C03R43248   1.396   0.501   5.826
   638G11  C03S43249   1.318   0.447   5.720
   638G11  C04943250   1.185   0.427   5.749
   638G11  C04843251   1.130   0.492   5.864
   638G11  C03P43252   1.200   0.578   5.955
   638G11  C04743253   0.997   0.451   5.890
   638G11  C04643254   0.918   0.483   5.997
   638G11  C04543255   0.947   0.566   6.107
   638G11  C03T43256   1.053   0.648   6.145
   638G11  C04443257   1.024   0.720   6.265
   638G11  C04343258   0.908   0.654   6.315
   638G11  C04243259   0.834   0.748   6.385
   638G11  C04143260   0.932   0.861   6.406
   638G11  C04043261   0.913   0.972   6.491
   638G11  C03Z43262   1.014   1.066   6.529
   638G11  C04H43263   0.953   1.140   6.640
   638G11  C04G43264   0.820   1.106   6.649
   638G11  C03N43265   1.155   1.098   6.499
   638G11  C03Y43266   1.201   1.211   6.571
   638G11  C03X43267   1.128   1.287   6.670
   638G11  C04F43268   0.795   1.003   6.569
   638G11  C04E43269   0.663   0.950   6.563
   638G11  C04O43270   0.567   1.014   6.646
   638G11  C04D43271   0.620   0.831   6.493
   638G11  C04V43272   0.485   0.813   6.475
   638G11  C04W43273   0.385   0.885   6.545
   638G11  C04C43274   0.693   0.734   6.422
   638G11  C04L43275   0.590   0.647   6.366
   638G11  C04U43276   0.612   0.540   6.278
   638G11  C05Q43277   0.512   0.469   6.207
   638G11  C05P43278   0.569   0.405   6.096
   638G11  C04T43279   0.699   0.443   6.090
   638G11  C04B43280   0.727   0.523   6.199
   638G11  C03M43281   1.060   0.837   6.344
   638G11  C04A43282   0.853   0.583   6.207
   638G11  C05H43283   0.790   0.425   5.982
   638G11  C05G43284   0.794   0.349   5.863
   638G11  C05F43285   0.690   0.274   5.811
   638G11  C05E43286   0.672   0.251   5.673
   638G11  C05L43287   0.752   0.250   5.555
   638G11  C05K43288   0.891   0.284   5.555
   638G11  C05J43289   0.971   0.339   5.663
   638G11  C06643290   0.963   0.258   5.433
   638G11  C06543291   0.890   0.217   5.319
   638G11  C06443292   0.752   0.199   5.318
   638G11  C06N43293   0.954   0.197   5.194
   638G11  C06943294   1.093   0.220   5.180
   638G11  C06P43295   1.156   0.209   5.060
   638G11  C06R43296   1.290   0.248   5.038
   638G11  C06B43297   1.362   0.282   5.148
   638G11  C06S43298   1.498   0.324   5.134
   638G11  C02G43299   1.563   0.372   5.242
   638G11  C02F43300   1.690   0.428   5.219
   638G11  C02743301   1.754   0.425   5.097
   638G11  C02643302   1.877   0.480   5.074
   638G11  C00E43303   1.930   0.485   4.945
   638G11  C00D43304   2.055   0.545   4.927
   638G11  C00C43305   2.107   0.542   4.803
   638G11  C00B43306   2.046   0.494   4.696
   638G11  C01543307   1.924   0.435   4.713
   638G11  C07F43308   1.855   0.381   4.601
   638G11  C07E43309   1.729   0.327   4.621
   638G11  C06W43310   1.670   0.313   4.751
   638G11  C06V43311   1.742   0.367   4.860
   638G11  C06X43312   1.546   0.272   4.770
   638G11  C07B43313   1.473   0.231   4.659
   638G11  C07C43314   1.527   0.239   4.529
   638G11  C0FU43315   1.450   0.195   4.425
   638G11  C0F743316   1.504   0.201   4.294
   638G11  C0F643317   1.425   0.161   4.184
   638G11  C0F843318   1.482   0.172   4.060
   638G11  C0F943319   1.414   0.113   3.949
   638G11  C0FA43320   1.471   0.111   3.822
   638G11  C0FZ43321   1.591   0.174   3.806
   638G11  C0G043322   1.650   0.175   3.680
   638G11  C0GD43323   1.589   0.111   3.569
   638G11  C0FC43324   1.475   0.038   3.592
   638G11  C0GH43325   1.422  -0.039   3.490
   638G11  C0EY43326   1.302  -0.113   3.514
   638G11  C0EX43327   1.244  -0.200   3.419
   638G11  C0EW43328   1.125  -0.269   3.450
   638G11  C0FR43329   1.071  -0.360   3.357
   638G11  H01D43330   0.973  -0.404   3.369
   638G11  C0FS43331   1.128  -0.369   3.229
   638G11  H01C43332   1.087  -0.434   3.153
   638G11  C0GJ43333   1.242  -0.292   3.195
   638G11  H01N43334   1.283  -0.289   3.095
   638G11  C0EV43335   1.054  -0.237   3.564
   638G11  C0FT43336   0.918  -0.264   3.585
   638G11  H01E43337   0.855  -0.312   3.511
   638G11  C0EU43338   1.112  -0.152   3.659
   638G11  C0ET43339   1.048  -0.119   3.779
   638G11  C0EI43340   1.098  -0.048   3.883
   638G11  C0F143341   1.226  -0.003   3.864
   638G11  C0F043342   1.290  -0.015   3.741
   638G11  C0EH43343   1.024  -0.030   4.002
   638G11  C0EG43344   0.885  -0.066   4.018
   638G11  C0EJ43345   1.093   0.018   4.116
   638G11  C0F343346   1.226   0.059   4.098
   638G11  C0EK43347   1.038   0.011   4.245
   638G11  C0EL43348   0.903  -0.026   4.261
   638G11  C0EM43349   0.863  -0.026   4.404
   638G11  C0EN43350   0.956   0.006   4.503
   638G11  C07I43351   0.893   0.016   4.620
   638G11  C07443352   0.952   0.074   4.732
   638G11  C07343353   0.880   0.087   4.850
   638G11  C07243354   0.949   0.130   4.959
   638G11  C07543355   1.083   0.109   4.718
   638G11  C07643356   1.142   0.105   4.589
   638G11  C07843357   1.272   0.146   4.572
   638G11  C07G43358   1.153   0.149   4.828
   638G11  C07043359   1.285   0.192   4.810
   638G11  C07Z43360   0.758  -0.020   4.611
   638G11  C07743361   1.078   0.061   4.478
   638G11  C0EO43362   1.121   0.059   4.349
   638G11  C0F443363   1.252   0.105   4.336
   638G11  C0EQ43364   0.907  -0.151   3.789
   638G11  C0FQ43365   1.308  -0.215   3.290
   638G11  C0GI43366   1.428  -0.142   3.270
   638G11  H01L43367   1.477  -0.163   3.176
   638G11  C0EZ43368   1.236  -0.090   3.637
   638G11  C0GG43369   1.480  -0.046   3.364
   638G11  C0GF43370   1.590   0.032   3.336
   638G11  H01M43371   1.643   0.031   3.242
   638G11  C0GE43372   1.642   0.115   3.435
   638G11  H01K43373   1.735   0.168   3.423
   638G11  O00J43374   1.759   0.251   3.651
   638G11  C0GA43375   1.822   0.313   3.763
   638G11  C0G943376   1.934   0.395   3.737
   638G11  H01H43377   1.963   0.419   3.636
   638G11  C0G843378   1.995   0.470   3.842
   638G11  C0G743379   2.107   0.554   3.823
   638G11  H01I43380   2.145   0.561   3.723
   638G11  O00I43381   2.155   0.642   3.929
   638G11  C0G643382   2.133   0.594   4.053
   638G11  H01J43383   2.179   0.649   4.133
   638G11  C02D43384   2.034   0.497   4.081
   638G11  C02C43385   1.998   0.463   4.212
   638G11  C01743386   2.073   0.503   4.326
   638G11  C01643387   2.030   0.473   4.454
   638G11  O00143388   2.209   0.546   4.308
   638G11  C01843389   2.267   0.612   4.412
   638G11  C00943390   2.222   0.593   4.548
   638G11  C00843391   2.275   0.655   4.665
   638G11  C00743392   2.372   0.761   4.692
   638G11  C00643393   2.461   0.811   4.596
   638G11  C00543394   2.554   0.916   4.626
   638G11  C00443395   2.583   0.983   4.753
   638G11  C00343396   2.522   0.975   4.887
   638G11  C00243397   2.548   1.076   4.983
   638G11  C00P43398   2.491   1.082   5.107
   638G11  C00O43399   2.512   1.185   5.199
   638G11  C00N43400   2.453   1.192   5.326
   638G11  C01043401   2.484   1.296   5.413
   638G11  C01143402   2.435   1.297   5.547
   638G11  C01Q43403   2.483   1.391   5.639
   638G11  C01U43404   2.570   1.492   5.599
   638G11  C01243405   2.612   1.492   5.465
   638G11  H00043406   2.681   1.568   5.432
   638G11  C01V43407   2.613   1.586   5.696
   638G11  H00743408   2.689   1.657   5.668
   638G11  O00543409   2.575   1.578   5.828
   638G11  C01W43410   2.493   1.476   5.866
   638G11  C03143411   2.451   1.466   6.001
   638G11  C03243412   2.376   1.351   6.046
   638G11  H00A43413   2.338   1.351   6.147
   638G11  C03343414   2.336   1.253   5.954
   638G11  H00B43415   2.286   1.161   5.979
   638G11  C01O43416   2.348   1.280   5.816
   638G11  C01N43417   2.286   1.202   5.718
   638G11  C01M43418   2.187   1.094   5.750
   638G11  C01L43419   2.056   1.068   5.834
   638G11  C01K43420   2.005   0.947   5.788
   638G11  C01Y43421   1.885   0.878   5.820
   638G11  C02I43422   1.805   0.940   5.911
   638G11  C02N43423   1.683   0.869   5.941
   638G11  C02M43424   1.606   0.924   6.048
   638G11  C02L43425   1.641   1.041   6.123
   638G11  C02K43426   1.763   1.104   6.087
   638G11  C02U43427   1.804   1.217   6.162
   638G11  C02V43428   1.734   1.249   6.280
   638G11  C03H43429   1.786   1.336   6.377
   638G11  H00C43430   1.890   1.365   6.367
   638G11  C02W43431   1.907   1.292   6.119
   638G11  C02X43432   1.976   1.246   6.011
   638G11  C02Y43433   2.062   1.355   5.988
   638G11  H00843434   2.130   1.380   5.907
   638G11  C02Z43435   2.056   1.457   6.100
   638G11  O00443436   2.127   1.556   6.132
   638G11  O00343437   1.950   1.413   6.173
   638G11  C02J43438   1.849   1.054   5.981
   638G11  C01Z43439   1.850   0.775   5.731
   638G11  C02043440   1.921   0.746   5.611
   638G11  C01I43441   2.033   0.809   5.585
   638G11  C01H43442   2.100   0.799   5.466
   638G11  C00K43443   2.195   0.894   5.439
   638G11  C01S43444   2.230   0.996   5.523
   638G11  C01443445   2.311   1.100   5.494
   638G11  C00J43446   2.257   0.887   5.317
   638G11  C00I43447   2.216   0.793   5.226
   638G11  C00H43448   2.107   0.704   5.250
   638G11  C00G43449   2.052   0.623   5.151
   638G11  C00S43450   2.274   0.789   5.103
   638G11  C00T43451   2.225   0.695   5.011
   638G11  C00U43452   2.281   0.694   4.883
   638G11  C00R43453   2.374   0.882   5.064
   638G11  C00L43454   2.351   0.985   5.282
   638G11  C02843455   2.047   0.709   5.376
   638G11  C02343456   1.927   0.647   5.393
   638G11  C02443457   1.868   0.568   5.295
   638G11  C02143458   1.862   0.667   5.512
   638G11  C02243459   1.742   0.604   5.535
   638G11  C02H43460   1.691   0.510   5.445
   638G11  C03043461   1.571   0.444   5.467
   638G11  C03443462   1.507   0.461   5.585
   638G11  C02P43463   1.681   0.624   5.657
   638G11  C02B43464   1.727   0.716   5.752
   638G11  C01J43465   2.077   0.903   5.680
   638G11  C01X43466   1.969   1.126   5.936
   638G11  C01T43467   2.177   0.992   5.653
   638G11  H00943468   2.476   1.552   6.061
   638G11  C01P43469   2.444   1.379   5.774
   638G11  C01R43470   2.341   1.201   5.585
   638G11  C00Z43471   2.569   1.401   5.372
   638G11  O00043472   2.630   1.393   5.251
   638G11  C00M43473   2.371   1.095   5.367
   638G11  C00Y43474   2.597   1.290   5.165
   638G11  C01343475   2.658   1.287   5.039
   638G11  H00143476   2.724   1.371   5.021
   638G11  C00Q43477   2.406   0.983   5.155
   638G11  C00143478   2.641   1.177   4.953
   638G11  C00043479   2.708   1.168   4.834
   638G11  H00643480   2.772   1.253   4.820
   638G11  C00W43481   2.428   0.879   4.932
   638G11  C01G43482   2.681   1.081   4.727
   638G11  H00543483   2.748   1.092   4.643
   638G11  C01C43484   2.600   0.961   4.491
   638G11  H00243485   2.656   1.048   4.460
   638G11  C01B43486   2.541   0.872   4.399
   638G11  C01D43487   2.567   0.874   4.261
   638G11  H00343488   2.622   0.952   4.211
   638G11  C01E43489   2.497   0.784   4.191
   638G11  H00443490   2.512   0.774   4.084
   638G11  O00243491   2.402   0.695   4.244
   638G11  C01A43492   2.453   0.788   4.459
   638G11  C00V43493   2.370   0.790   4.833
   638G11  C01943494   2.376   0.699   4.377
   638G11  C02E43495   1.877   0.391   4.235
   638G11  C0FX43496   1.805   0.344   4.124
   638G11  C0FW43497   1.685   0.273   4.147
   638G11  C0GB43498   1.847   0.366   3.997
   638G11  C0G343499   1.831   0.366   4.367
   638G11  C07H43500   1.703   0.308   4.381
   638G11  C0GC43501   1.959   0.447   3.974
   638G11  C0G243502   1.776   0.310   3.892
   638G11  C0G143503   1.661   0.235   3.914
   638G11  C0FB43504   1.410   0.043   3.718
   638G11  C0F243505   1.284   0.055   3.971
   638G11  C0FY43506   1.611   0.227   4.042
   638G11  C0F543507   1.300   0.109   4.206
   638G11  C0FV43508   1.627   0.264   4.273
   638G11  C07943509   1.326   0.142   4.444
   638G11  C07A43510   1.342   0.190   4.682
   638G11  C06Y43511   1.488   0.271   4.896
   638G11  C07D43512   1.654   0.293   4.510
   638G11  C01F43513   1.905   0.407   4.473
   638G11  C00A43514   2.104   0.517   4.565
   638G11  C00X43515   2.224   0.617   4.783
   638G11  C00F43516   2.115   0.618   5.032
   638G11  C02943517   1.865   0.428   4.837
   638G11  C02543518   1.933   0.553   5.173
   638G11  C06U43519   1.688   0.372   4.989
   638G11  C02A43520   1.751   0.501   5.321
   638G11  C05Y43521   1.505   0.379   5.366
   638G11  C05Z43522   1.371   0.335   5.385
   638G11  C06043523   1.308   0.357   5.505
   638G11  C06243524   1.173   0.327   5.526
   638G11  C06T43525   1.557   0.318   5.007
   638G11  C06A43526   1.298   0.291   5.276
   638G11  C06Z43527   1.354   0.234   4.918
   638G11  C06Q43528   1.084   0.165   4.949
   638G11  C06843529   1.163   0.264   5.291
   638G11  C06743530   1.100   0.284   5.415
   638G11  C06343531   0.681   0.218   5.435
   638G11  C06C43532   0.539   0.213   5.429
   638G11  C06D43533   0.461   0.225   5.543
   638G11  C06E43534   0.325   0.230   5.546
   638G11  C07Q43535   0.252   0.213   5.431
   638G11  C07P43536   0.326   0.188   5.316
   638G11  C07T43537   0.256   0.166   5.202
   638G11  C07U43538   0.328   0.129   5.086
   638G11  C07V43539   0.260   0.105   4.970
   638G11  C08443540   0.125   0.136   4.968
   638G11  C08C43541   0.056   0.160   5.081
   638G11  C08B43542  -0.077   0.191   5.073
   638G11  C08A43543  -0.143   0.225   5.186
   638G11  C08943544  -0.089   0.227   5.310
   638G11  C08843545  -0.164   0.261   5.427
   638G11  C08743546  -0.095   0.290   5.545
   638G11  C08643547   0.044   0.264   5.551
   638G11  C08X43548  -0.305   0.284   5.417
   638G11  C08T43549  -0.364   0.286   5.284
   638G11  C08D43550   0.047   0.208   5.315
   638G11  C08U43551  -0.276   0.261   5.181
   638G11  C08V43552  -0.345   0.253   5.061
   638G11  C0CY43553  -0.280   0.223   4.943
   638G11  C0CX43554  -0.355   0.218   4.833
   638G11  C0CW43555  -0.287   0.193   4.719
   638G11  C0CV43556  -0.152   0.166   4.721
   638G11  C0D443557  -0.082   0.164   4.840
   638G11  C0CU43558  -0.083   0.132   4.603
   638G11  C0CT43559  -0.142   0.140   4.474
   638G11  C0CS43560  -0.274   0.167   4.475
   638G11  C0D643561   0.049   0.097   4.615
   638G11  C0EC43562   0.121   0.093   4.733
   638G11  C07X43563   0.261   0.072   4.737
   638G11  C0DL43564   0.114   0.072   4.498
   638G11  C0DK43565   0.246   0.038   4.504
   638G11  C0DN43566   0.280   0.013   4.377
   638G11  C0D843567   0.065   0.074   4.368
   638G11  C08W43568  -0.482   0.278   5.073
   638G11  C0CQ43569  -0.562   0.263   4.955
   638G11  C09343570  -0.146   0.195   4.955
   638G11  C09243571   0.056   0.130   4.847
   638G11  C08543572   0.122   0.178   5.202
   638G11  C07S43573   0.117   0.228   5.435
   638G11  C06F43574   0.250   0.261   5.664
   638G11  C07O43575   0.467   0.184   5.313
   638G11  C07N43576   0.540   0.153   5.200
   638G11  C05D43577   0.535   0.244   5.659
   638G11  C05C43578   0.465   0.249   5.775
   638G11  C05N43579   0.555   0.281   5.872
   638G11  C05M43580   0.917   0.375   5.795
   638G11  C05I43581   1.108   0.364   5.650
   638G11  C06143582   1.380   0.416   5.605
   638G11  C02Q43583   1.566   0.550   5.676
   638G11  C02O43584   1.652   0.754   5.861
   638G11  C03Q43585   1.340   0.575   5.924
   638G11  C03O43586   1.166   0.662   6.068
   638G11  C03L43587   1.178   0.914   6.326
   638G11  C02S43588   1.478   0.871   6.095
   638G11  C02T43589   1.566   1.090   6.233
   638G11  C03K43590   1.225   1.033   6.396
   638G11  C03I43591   1.610   1.194   6.307
   638G11  C03G43592   1.713   1.394   6.481
   638G11  H00D43593   1.747   1.475   6.545
   638G11  C03J43594   1.327   1.249   6.545
   638G11  C03W43595   1.179   1.397   6.734
   638G11  C04I43596   0.997   1.253   6.703
   638G11  C04K43597   0.735   1.168   6.736
   638G11  C04N43598   0.605   1.119   6.737
   638G11  C04X43599   0.431   0.977   6.638
   638G11  C05043600   0.253   0.852   6.520
   638G11  C05W43601   0.453   0.699   6.399
   638G11  C05S43602   0.039   0.572   6.205
   638G11  C05R43603   0.375   0.462   6.225
   638G11  C05O43604   0.496   0.330   5.994
   638G11  C05B43605   0.323   0.274   5.778
   638G11  C05A43606   0.089   0.416   6.027
   638G11  C07R43607   0.114   0.290   5.667
   638G11  C08N43608  -0.165   0.338   5.662
   638G11  C08M43609  -0.309   0.352   5.648
   638G11  C08L43610  -0.375   0.407   5.758
   638G11  C09143611  -0.001   0.520   6.068
   638G11  C09K43612  -0.276   0.751   6.037
   638G11  H00M43613  -0.208   0.829   6.006
   638G11  C08K43614  -0.298   0.457   5.867
   638G11  C09J43615  -0.420   0.750   6.012
   638G11  C09I43616  -0.526   0.831   5.960
   638G11  C09L43617  -0.552   0.970   5.967
   638G11  H00N43618  -0.476   1.039   6.000
   638G11  C09Q43619  -0.673   1.015   5.927
   638G11  H00O43620  -0.685   1.123   5.932
   638G11  O00B43621  -0.770   0.939   5.874
   638G11  C09G43622  -0.746   0.804   5.848
   638G11  C09F43623  -0.839   0.742   5.755
   638G11  O00A43624  -0.950   0.825   5.729
   638G11  C09P43625  -1.046   0.770   5.658
   638G11  H00P43626  -1.140   0.823   5.663
   638G11  C09O43627  -1.016   0.683   5.548
   638G11  C09D43628  -0.908   0.593   5.575
   638G11  C09C43629  -0.870   0.475   5.491
   638G11  C09N43630  -0.896   0.440   5.355
   638G11  C09T43631  -0.948   0.530   5.259
   638G11  C09S43632  -1.060   0.619   5.303
   638G11  C0CP43633  -1.140   0.630   5.188
   638G11  C0CN43634  -1.088   0.566   5.077
   638G11  C0CO43635  -1.159   0.584   4.953
   638G11  H01443636  -1.124   0.546   4.858
   638G11  C0CZ43637  -1.295   0.611   4.965
   638G11  H01543638  -1.353   0.601   4.874
   638G11  C0D043639  -1.354   0.647   5.090
   638G11  C0G543640  -1.495   0.661   5.121
   638G11  H01F43641  -1.566   0.632   5.045
   638G11  C0G443642  -1.543   0.687   5.243
   638G11  H01G43643  -1.651   0.686   5.250
   638G11  O00H43644  -1.463   0.696   5.353
   638G11  C0D243645  -1.324   0.708   5.330
   638G11  C09V43646  -1.237   0.718   5.438
   638G11  H00Q43647  -1.278   0.725   5.538
   638G11  C0D143648  -1.272   0.667   5.207
   638G11  C09R43649  -1.097   0.677   5.430
   638G11  C09H43650  -0.624   0.749   5.900
   638G11  C09E43651  -0.825   0.616   5.693
   638G11  C09B43652  -0.786   0.380   5.536
   638G11  C08Z43653  -0.517   0.421   5.744
   638G11  C08O43654  -0.381   0.317   5.529
   638G11  C09A43655  -0.750   0.276   5.441
   638G11  C08S43656  -0.491   0.291   5.215
   638G11  C09943657  -0.821   0.320   5.324
   638G11  C09U43658  -0.977   0.484   5.125
   638G11  C0BO43659  -0.975   0.260   4.701
   638G11  C0CL43660  -0.699   0.298   4.950
   638G11  C0D343661  -0.495   0.238   4.837
   638G11  C0D543662  -0.352   0.190   4.597
   638G11  C0BR43663  -0.766   0.237   4.590
   638G11  C0BQ43664  -0.902   0.228   4.588
   638G11  C0BL43665  -1.179   0.223   4.582
   638G11  C0AF43666  -1.314   0.160   4.354
   638G11  C0BH43667  -0.966   0.161   4.236
   638G11  C0BG43668  -0.895   0.153   4.115
   638G11  C0BD43669  -1.097   0.114   3.993
   638G11  C0AG43670  -1.371   0.115   4.237
   638G11  C0AI43671  -1.585   0.122   4.115
   638G11  C0AV43672  -1.714   0.197   3.887
   638G11  C0BB43673  -1.381   0.083   3.767
   638G11  O00C43674  -1.667   0.272   3.661
   638G11  C0BC43675  -1.331   0.108   3.642
   638G11  C0B943676  -1.167   0.096   3.870
   638G11  O00E43677  -0.901   0.189   3.631
   638G11  C0CA43678  -0.766   0.204   3.621
   638G11  O00F43679  -0.719   0.232   3.508
   638G11  C0BF43680  -0.965   0.150   3.991
   638G11  C0C543681  -0.701   0.204   3.750
   638G11  C0C443682  -0.559   0.227   3.743
   638G11  H01143683  -0.516   0.245   3.646
   638G11  C0C843684  -0.761   0.176   4.109
   638G11  C0C243685  -0.491   0.212   3.868
   638G11  C0C343686  -0.348   0.219   3.884
   638G11  C0DY43687  -0.258   0.248   3.789
   638G11  H01643688  -0.263   0.272   3.683
   638G11  C0DX43689  -0.135   0.232   3.851
   638G11  C0DW43690  -0.018   0.231   3.762
   638G11  C0BY43691  -0.554   0.186   4.234
   638G11  C0DB43692  -0.281   0.199   4.008
   638G11  C0CC43693  -0.344   0.167   4.350
   638G11  C0D743694  -0.074   0.121   4.353
   638G11  C0DZ43695  -0.143   0.194   3.995
   638G11  C0DM43696   0.175   0.037   4.280
   638G11  C0DQ43697   0.156   0.138   3.935
   638G11  C0DV43698   0.111   0.182   3.808
   638G11  C0E043699   0.000   0.272   3.620
   638G11  C0FO43700   0.210   0.082   3.412
   638G11  C0E343701  -0.085   0.228   3.507
   638G11  H01743702  -0.181   0.179   3.515
   638G11  C0GV43703   0.122   0.021   3.321
   638G11  C0ES43704   0.305  -0.001   3.480
   638G11  C0GQ43705   0.255  -0.311   3.279
   638G11  C0FJ43706   0.545  -0.436   3.475
   638G11  C0ED43707   0.499  -0.181   3.597
   638G11  C0ER43708   0.840  -0.221   3.692
   638G11  C0EP43709   0.828  -0.111   3.892
   638G11  C0E643710   0.478  -0.021   3.805
   638G11  C0DE43711   0.447  -0.021   4.115
   638G11  C0EA43712   0.818  -0.049   4.145
   638G11  C0DF43713   0.465  -0.078   4.245
   638G11  C08043714   0.741  -0.052   4.473
   638G11  C0DO43715   0.407  -0.036   4.367
   638G11  C0DJ43716   0.324   0.034   4.623
   638G11  C07K43717   0.680   0.006   4.735
   638G11  C07W43718   0.334   0.069   4.854
   638G11  C08343719   0.468   0.119   5.083
   638G11  C07J43720   0.747   0.050   4.851
   638G11  C06O43721   0.883   0.155   5.079
   638G11  C06M43722   0.680   0.154   5.203
   648G11  C07143723   3.146   4.324   8.322
   648G11  C07L43724   3.252   4.362   8.232
   648G11  C07M43725   3.309   4.487   8.228
   648G11  C07Y43726   3.406   4.521   8.138
   648G11  C08143727   3.456   4.432   8.038
   648G11  C08243728   3.553   4.477   7.947
   648G11  C0DI43729   3.627   4.408   7.837
   648G11  C0DH43730   3.617   4.272   7.797
   648G11  C0DG43731   3.711   4.252   7.691
   648G11  C0E943732   3.699   4.180   7.565
   648G11  C0E843733   3.797   4.253   7.477
   648G11  C0E743734   3.871   4.217   7.359
   648G11  C0EB43735   3.877   4.075   7.329
   648G11  C0EF43736   3.981   3.999   7.260
   648G11  C0EE43737   4.107   4.040   7.216
   648G11  C0FD43738   4.210   3.945   7.222
   648G11  C0FE43739   4.222   3.850   7.329
   648G11  H01B43740   4.141   3.847   7.400
   648G11  C0FF43741   4.323   3.751   7.332
   648G11  H01A43742   4.325   3.683   7.416
   648G11  C0FG43743   4.421   3.753   7.230
   648G11  H01843744   4.506   3.687   7.245
   648G11  C0FH43745   4.412   3.849   7.126
   648G11  C0FI43746   4.518   3.865   7.031
   648G11  H01943747   4.602   3.799   7.044
   648G11  O00K43748   4.513   3.960   6.938
   648G11  C0FL43749   4.421   4.059   6.954
   648G11  C0FK43750   4.311   4.055   7.037
   648G11  C0FM43751   4.222   4.161   7.046
   648G11  C0FN43752   4.237   4.271   6.964
   648G11  C0FP43753   4.350   4.282   6.887
   648G11  C0GO43754   4.392   4.397   6.827
   648G11  C0GN43755   4.526   4.425   6.783
   648G11  C0GR43756   4.613   4.318   6.782
   648G11  C0GS43757   4.748   4.334   6.755
   648G11  H01Q43758   4.811   4.247   6.755
   648G11  C0GT43759   4.801   4.463   6.736
   648G11  H01O43760   4.906   4.475   6.716
   648G11  C0GU43761   4.713   4.575   6.747
   648G11  H01P43762   4.745   4.679   6.744
   648G11  O00L43763   4.567   4.192   6.813
   648G11  C0GM43764   4.572   4.558   6.768
   648G11  C0GL43765   4.475   4.659   6.791
   648G11  H01R43766   4.498   4.765   6.789
   648G11  C0GK43767   4.340   4.627   6.817
   648G11  C0GP43768   4.223   4.713   6.854
   648G11  C0E243769   4.113   4.616   6.876
   648G11  C0E143770   4.030   4.674   6.976
   648G11  C0DU43771   3.985   4.618   7.096
   648G11  C0DT43772   3.983   4.481   7.126
   648G11  C0E443773   4.048   4.369   7.064
   648G11  C0E543774   4.028   4.262   7.147
   648G11  C0DS43775   3.946   4.445   7.257
   648G11  C0DR43776   3.912   4.542   7.348
   648G11  C0DD43777   3.862   4.520   7.479
   648G11  C0DC43778   3.862   4.659   7.535
   648G11  C0DP43779   3.915   4.759   7.447
   648G11  C0DA43780   3.922   4.913   7.461
   648G11  C0D943781   3.878   5.008   7.572
   648G11  C0CR43782   3.891   5.151   7.562
   648G11  C0C043783   3.949   5.207   7.455
   648G11  C0BZ43784   3.956   5.346   7.423
   648G11  C0C143785   4.009   5.399   7.304
   648G11  C0C743786   4.015   5.536   7.281
   648G11  C0C643787   4.078   5.591   7.170
   648G11  C0C943788   4.092   5.727   7.152
   648G11  C0B843789   4.162   5.776   7.040
   648G11  C0B743790   4.159   5.916   7.009
   648G11  C0B643791   4.224   5.993   6.904
   648G11  C0B543792   4.354   5.966   6.855
   648G11  H00Z43793   4.410   5.874   6.863
   648G11  C0B443794   4.419   6.096   6.817
   648G11  H01043795   4.521   6.126   6.796
   648G11  C0B343796   4.329   6.202   6.846
   648G11  C0AP43797   4.313   6.337   6.897
   648G11  C0AQ43798   4.191   6.326   6.968
   648G11  C0AR43799   4.165   6.405   7.080
   648G11  C0AS43800   4.077   6.351   7.170
   648G11  C0AT43801   4.041   6.217   7.180
   648G11  C0BA43802   4.069   6.133   7.080
   648G11  C0AU43803   3.992   6.163   7.299
   648G11  C0BE43804   3.983   6.028   7.320
   648G11  C0BI43805   3.934   5.983   7.440
   648G11  C0BJ43806   3.895   6.071   7.539
   648G11  C0BK43807   3.850   6.025   7.659
   648G11  C0BW43808   3.841   5.886   7.679
   648G11  C0BV43809   3.884   5.791   7.585
   648G11  C0BU43810   3.873   5.655   7.601
   648G11  C0BX43811   3.910   5.570   7.499
   648G11  C0BT43812   3.828   5.612   7.726
   648G11  C0CD43813   3.813   5.474   7.741
   648G11  C0CB43814   3.854   5.384   7.640
   648G11  C0CE43815   3.757   5.426   7.856
   648G11  C0CK43816   3.714   5.515   7.955
   648G11  C0BS43817   3.725   5.652   7.935
   648G11  C0CJ43818   3.682   5.741   8.037
   648G11  C0BP43819   3.700   5.884   8.019
   648G11  C0CI43820   3.659   5.975   8.115
   648G11  C0CH43821   3.652   6.107   8.069
   648G11  H01243822   3.611   6.179   8.138
   648G11  C0BN43823   3.712   6.158   7.956
   648G11  C0CG43824   3.721   6.297   7.932
   648G11  C0CF43825   3.672   6.395   8.034
   648G11  H01343826   3.616   6.368   8.122
   648G11  O00G43827   3.676   6.526   8.007
   648G11  C0AA43828   3.762   6.571   7.909
   648G11  C0A943829   3.789   6.706   7.908
   648G11  H00U43830   3.758   6.773   7.988
   648G11  C0A843831   3.871   6.757   7.809
   648G11  H00V43832   3.872   6.864   7.827
   648G11  C0A743833   3.936   6.671   7.715
   648G11  C0A643834   3.898   6.533   7.713
   648G11  C0A543835   3.926   6.436   7.611
   648G11  C0A443836   3.995   6.472   7.487
   648G11  C0A343837   4.064   6.588   7.436
   648G11  C0A243838   4.084   6.703   7.498
   648G11  C0A143839   4.165   6.810   7.442
   648G11  C0A043840   4.255   6.832   7.325
   648G11  C09Z43841   4.316   6.957   7.316
   648G11  C09Y43842   4.414   6.983   7.218
   648G11  H00Y43843   4.464   7.079   7.215
   648G11  C09X43844   4.446   6.876   7.130
   648G11  C09W43845   4.544   6.907   7.039
   648G11  H00R43846   4.590   7.005   7.036
   648G11  C0AX43847   4.585   6.823   6.936
   648G11  H00S43848   4.660   6.852   6.865
   648G11  C0AW43849   4.527   6.701   6.945
   648G11  H00T43850   4.557   6.627   6.871
   648G11  C0AN43851   4.420   6.664   7.028
   648G11  C0AO43852   4.345   6.547   7.009
   648G11  C0AM43853   4.379   6.756   7.131
   648G11  C0B243854   4.296   7.068   7.412
   648G11  O00D43855   4.364   7.167   7.408
   648G11  C0B143856   4.196   7.049   7.517
   648G11  H00W43857   4.180   7.128   7.589
   648G11  C0AL43858   4.276   6.730   7.222
   648G11  C0AK43859   4.212   6.606   7.211
   648G11  C0B043860   4.144   6.915   7.531
   648G11  C0AZ43861   4.068   6.876   7.647
   648G11  H00X43862   4.042   6.930   7.737
   648G11  C0AJ43863   4.122   6.557   7.306
   648G11  C0AH43864   3.986   6.383   7.388
   648G11  C0AE43865   3.888   6.301   7.618
   648G11  C0AD43866   3.828   6.253   7.731
   648G11  C0AY43867   4.023   6.744   7.627
   648G11  C0AB43868   3.812   6.483   7.809
   648G11  C0AC43869   3.786   6.346   7.819
   648G11  C0BM43870   3.760   6.066   7.868
   648G11  C0CM43871   3.623   5.930   8.243
   648G11  C09M43872   3.599   5.794   8.272
   648G11  C09843873   3.562   5.754   8.410
   648G11  C08R43874   3.498   5.642   8.463
   648G11  C08Q43875   3.486   5.641   8.607
   648G11  C08P43876   3.392   5.586   8.706
   648G11  C08Y43877   3.362   5.668   8.818
   648G11  C09743878   3.389   5.801   8.807
   648G11  C09643879   3.288   5.884   8.851
   648G11  C09043880   3.203   5.795   8.926
   648G11  C09543881   3.077   5.831   8.985
   648G11  C09443882   2.985   5.741   9.057
   648G11  C08J43883   2.976   5.599   9.052
   648G11  C08I43884   2.842   5.562   9.041
   648G11  C08H43885   2.825   5.428   8.991
   648G11  C08G43886   2.953   5.407   8.924
   648G11  C08F43887   3.008   5.291   8.848
   648G11  C08E43888   2.961   5.165   8.860
   648G11  C05943889   2.876   5.114   8.962
   648G11  C05843890   2.849   4.977   8.971
   648G11  C05743891   2.755   4.928   9.063
   648G11  C05643892   2.699   5.012   9.167
   648G11  C05543893   2.746   5.141   9.186
   648G11  C05443894   2.632   5.216   9.237
   648G11  C05343895   2.518   5.127   9.243
   648G11  C05243896   2.376   5.164   9.254
   648G11  C05143897   2.335   5.305   9.256
   648G11  C05U43898   2.418   5.424   9.241
   648G11  C05T43899   2.548   5.447   9.194
   648G11  C06K43900   2.583   5.584   9.229
   648G11  H00J43901   2.688   5.610   9.229
   648G11  C06L43902   2.461   5.658   9.261
   648G11  H00I43903   2.449   5.764   9.279
   648G11  C05V43904   2.362   5.553   9.268
   648G11  C06J43905   2.232   5.573   9.307
   648G11  H00K43906   2.199   5.676   9.305
   648G11  C05X43907   2.149   5.462   9.319
   648G11  C06I43908   2.010   5.481   9.342
   648G11  H00L43909   1.982   5.583   9.361
   648G11  C04Z43910   1.917   5.377   9.351
   648G11  C06H43911   1.779   5.405   9.383
   648G11  H00H43912   1.746   5.500   9.420
   648G11  C04Y43913   1.688   5.295   9.375
   648G11  C06G43914   1.550   5.324   9.392
   648G11  O00943915   1.504   5.427   9.425
   648G11  O00843916   1.465   5.235   9.351
   648G11  C04P43917   1.504   5.111   9.297
   648G11  C04J43918   1.415   5.022   9.229
   648G11  C04Q43919   1.279   5.046   9.191
   648G11  H00E43920   1.233   5.139   9.221
   648G11  C04M43921   1.204   4.947   9.139
   648G11  C04R43922   1.067   4.958   9.124
   648G11  H00F43923   1.009   5.046   9.153
   648G11  C04S43924   0.988   4.858   9.069
   648G11  H00G43925   0.883   4.875   9.047
   648G11  O00743926   1.050   4.741   9.020
   648G11  C03V43927   1.187   4.726   9.044
   648G11  C03U43928   1.251   4.606   9.009
   648G11  O00643929   1.173   4.519   8.934
   648G11  C03F43930   1.225   4.409   8.880
   648G11  C03E43931   1.364   4.379   8.891
   648G11  C03D43932   1.447   4.463   8.969
   648G11  C03C43933   1.586   4.439   8.983
   648G11  C03B43934   1.631   4.318   8.920
   648G11  C03A43935   1.765   4.288   8.923
   648G11  C03943936   1.859   4.379   8.982
   648G11  C03843937   1.989   4.324   8.945
   648G11  C03743938   1.956   4.200   8.881
   648G11  C03643939   2.044   4.111   8.835
   648G11  C02R43940   2.026   3.995   8.766
   648G11  C03543941   2.162   3.954   8.736
   648G11  C03R43942   2.247   4.044   8.784
   648G11  C03S43943   2.374   4.067   8.729
   648G11  C04943944   2.443   4.176   8.773
   648G11  C04843945   2.367   4.266   8.852
   648G11  C03P43946   2.225   4.266   8.881
   648G11  C04743947   2.454   4.366   8.904
   648G11  C04643948   2.411   4.470   8.984
   648G11  C04543949   2.290   4.505   9.043
   648G11  C03T43950   2.159   4.460   9.029
   648G11  C04443951   2.059   4.538   9.104
   648G11  C04343952   2.142   4.624   9.180
   648G11  C04243953   2.074   4.743   9.208
   648G11  C04143954   1.930   4.694   9.193
   648G11  C04043955   1.818   4.778   9.211
   648G11  C03Z43956   1.681   4.747   9.175
   648G11  C04H43957   1.609   4.862   9.206
   648G11  C04G43958   1.691   4.956   9.258
   648G11  C03N43959   1.612   4.648   9.099
   648G11  C03Y43960   1.470   4.675   9.084
   648G11  C03X43961   1.401   4.794   9.131
   648G11  C04F43962   1.820   4.915   9.259
   648G11  C04E43963   1.919   5.011   9.291
   648G11  C04O43964   1.875   5.139   9.325
   648G11  C04D43965   2.060   4.989   9.292
   648G11  C04V43966   2.143   5.099   9.283
   648G11  C04W43967   2.099   5.232   9.298
   648G11  C04C43968   2.130   4.873   9.259
   648G11  C04L43969   2.274   4.914   9.248
   648G11  C04U43970   2.387   4.827   9.226
   648G11  C05Q43971   2.512   4.872   9.195
   648G11  C05P43972   2.580   4.773   9.119
   648G11  C04T43973   2.502   4.664   9.090
   648G11  C04B43974   2.381   4.697   9.159
   648G11  C03M43975   1.920   4.565   9.112
   648G11  C04A43976   2.276   4.607   9.141
   648G11  C05H43977   2.523   4.549   9.005
   648G11  C05G43978   2.632   4.504   8.932
   648G11  C05F43979   2.751   4.571   8.911
   648G11  C05E43980   2.828   4.547   8.791
   648G11  C05L43981   2.854   4.446   8.689
   648G11  C05K43982   2.771   4.327   8.682
   648G11  C05J43983   2.649   4.302   8.753
   648G11  C06643984   2.817   4.237   8.581
   648G11  C06543985   2.935   4.262   8.502
   648G11  C06443986   3.006   4.382   8.510
   648G11  C06N43987   2.981   4.165   8.411
   648G11  C06943988   2.912   4.042   8.394
   648G11  C06P43989   2.947   3.952   8.286
   648G11  C06R43990   2.863   3.841   8.252
   648G11  C06B43991   2.750   3.821   8.325
   648G11  C06S43992   2.658   3.719   8.287
   648G11  C02G43993   2.532   3.704   8.350
   648G11  C02F43994   2.435   3.615   8.300
   648G11  C02743995   2.458   3.547   8.183
   648G11  C02643996   2.357   3.467   8.125
   648G11  C00E43997   2.385   3.395   8.007
   648G11  C00D43998   2.284   3.316   7.952
   648G11  C00C43999   2.305   3.262   7.826
   648G11  C00B44000   2.417   3.277   7.754
   648G11  C01544001   2.519   3.356   7.809
   648G11  C07F44002   2.632   3.381   7.737
   648G11  C07E44003   2.732   3.464   7.797
   648G11  C06W44004   2.723   3.514   7.929
   648G11  C06V44005   2.608   3.487   8.002
   648G11  C06X44006   2.820   3.593   7.982
   648G11  C07B44007   2.927   3.627   7.901
   648G11  C07C44008   2.941   3.574   7.769
   648G11  C0FU44009   3.042   3.617   7.683
   648G11  C0F744010   3.056   3.562   7.559
   648G11  C0F644011   3.167   3.597   7.478
   648G11  C0F844012   3.183   3.540   7.354
   648G11  C0F944013   3.296   3.567   7.279
   648G11  C0FA44014   3.322   3.497   7.161
   648G11  C0FZ44015   3.225   3.412   7.118
   648G11  C0G044016   3.245   3.343   6.997
   648G11  C0GD44017   3.367   3.355   6.922
   648G11  C0FC44018   3.468   3.431   6.978
   648G11  C0GH44019   3.593   3.436   6.922
   648G11  C0EY44020   3.697   3.510   6.983
   648G11  C0EX44021   3.833   3.497   6.944
   648G11  C0EW44022   3.931   3.574   7.011
   648G11  C0FR44023   4.063   3.536   7.001
   648G11  H01D44024   4.135   3.589   7.063
   648G11  C0FS44025   4.102   3.452   6.897
   648G11  H01C44026   4.207   3.428   6.889
   648G11  C0GJ44027   4.005   3.392   6.814
   648G11  H01N44028   4.037   3.348   6.721
   648G11  C0EV44029   3.894   3.677   7.095
   648G11  C0FT44030   3.984   3.776   7.138
   648G11  H01E44031   4.087   3.782   7.103
   648G11  C0EU44032   3.757   3.682   7.139
   648G11  C0ET44033   3.711   3.774   7.226
   648G11  C0EI44034   3.590   3.782   7.285
   648G11  C0F144035   3.500   3.684   7.244
   648G11  C0F044036   3.531   3.600   7.137
   648G11  C0EH44037   3.564   3.871   7.391
   648G11  C0EG44038   3.653   3.975   7.427
   648G11  C0EJ44039   3.457   3.838   7.471
   648G11  C0F344040   3.362   3.740   7.435
   648G11  C0EK44041   3.431   3.903   7.594
   648G11  C0EL44042   3.510   4.018   7.629
   648G11  C0EM44043   3.474   4.076   7.755
   648G11  C0EN44044   3.374   4.017   7.833
   648G11  C07I44045   3.348   4.088   7.945
   648G11  C07444046   3.258   4.045   8.044
   648G11  C07344047   3.228   4.142   8.138
   648G11  C07244048   3.127   4.107   8.229
   648G11  C07544049   3.184   3.938   8.015
   648G11  C07644050   3.205   3.864   7.896
   648G11  C07844051   3.120   3.763   7.855
   648G11  C07G44052   3.078   3.904   8.092
   648G11  C07044053   2.994   3.796   8.060
   648G11  C07Z44054   3.427   4.203   7.948
   648G11  C07744055   3.299   3.903   7.804
   648G11  C0EO44056   3.321   3.853   7.678
   648G11  C0F444057   3.234   3.755   7.639
   648G11  C0EQ44058   3.805   3.863   7.265
   648G11  C0FQ44059   3.868   3.416   6.838
   648G11  C0GI44060   3.760   3.367   6.760
   648G11  H01L44061   3.781   3.316   6.667
   648G11  C0EZ44062   3.661   3.604   7.082
   648G11  C0GG44063   3.627   3.367   6.807
   648G11  C0GF44064   3.517   3.305   6.737
   648G11  H01M44065   3.546   3.264   6.641
   648G11  C0GE44066   3.393   3.298   6.796
   648G11  H01K44067   3.314   3.246   6.744
   648G11  O00J44068   3.145   3.273   6.941
   648G11  C0GA44069   3.045   3.224   7.020
   648G11  C0G944070   2.944   3.143   6.967
   648G11  H01H44071   2.962   3.113   6.865
   648G11  C0G844072   2.835   3.100   7.047
   648G11  C0G744073   2.732   3.008   7.000
   648G11  H01I44074   2.748   2.967   6.901
   648G11  O00I44075   2.629   2.965   7.076
   648G11  C0G644076   2.610   3.030   7.194
   648G11  H01J44077   2.539   2.987   7.263
   648G11  C02D44078   2.702   3.134   7.240
   648G11  C02C44079   2.682   3.200   7.358
   648G11  C01744080   2.555   3.193   7.428
   648G11  C01644081   2.543   3.247   7.559
   648G11  O00144082   2.444   3.161   7.359
   648G11  C01844083   2.328   3.133   7.421
   648G11  C00944084   2.312   3.159   7.561
   648G11  C00844085   2.194   3.152   7.638
   648G11  C00744086   2.057   3.110   7.616
   648G11  C00644087   2.008   3.078   7.489
   648G11  C00544088   1.870   3.070   7.458
   648G11  C00444089   1.748   3.084   7.543
   648G11  C00344090   1.733   3.143   7.669
   648G11  C00244091   1.604   3.167   7.716
   648G11  C00P44092   1.583   3.242   7.831
   648G11  C00O44093   1.454   3.294   7.860
   648G11  C00N44094   1.429   3.367   7.975
   648G11  C01044095   1.302   3.417   8.011
   648G11  C01144096   1.275   3.498   8.117
   648G11  C01Q44097   1.155   3.570   8.120
   648G11  C01U44098   1.050   3.562   8.028
   648G11  C01244099   1.072   3.460   7.930
   648G11  H00044100   0.992   3.444   7.859
   648G11  C01V44101   0.935   3.641   8.048
   648G11  H00744102   0.855   3.638   7.976
   648G11  O00544103   0.921   3.727   8.151
   648G11  C01W44104   1.025   3.732   8.237
   648G11  C03144105   1.005   3.806   8.357
   648G11  C03244106   1.087   3.790   8.469
   648G11  H00A44107   1.065   3.836   8.564
   648G11  C03344108   1.203   3.709   8.464
   648G11  H00B44109   1.261   3.699   8.554
   648G11  C01O44110   1.234   3.655   8.335
   648G11  C01N44111   1.358   3.597   8.315
   648G11  C01M44112   1.472   3.621   8.401
   648G11  C01L44113   1.524   3.725   8.490
   648G11  C01K44114   1.647   3.678   8.540
   648G11  C01Y44115   1.742   3.757   8.596
   648G11  C02I44116   1.697   3.875   8.659
   648G11  C02N44117   1.788   3.957   8.725
   648G11  C02M44118   1.741   4.075   8.785
   648G11  C02L44119   1.603   4.108   8.782
   648G11  C02K44120   1.517   4.038   8.693
   648G11  C02U44121   1.395   4.098   8.657
   648G11  C02V44122   1.340   4.194   8.735
   648G11  C03H44123   1.200   4.226   8.731
   648G11  H00C44124   1.135   4.161   8.674
   648G11  C02W44125   1.339   4.060   8.538
   648G11  C02X44126   1.394   3.953   8.473
   648G11  C02Y44127   1.328   3.953   8.349
   648G11  H00844128   1.340   3.887   8.265
   648G11  C02Z44129   1.222   4.061   8.345
   648G11  O00444130   1.139   4.087   8.260
   648G11  O00344131   1.250   4.131   8.465
   648G11  C02J44132   1.562   3.921   8.632
   648G11  C01Z44133   1.876   3.730   8.574
   648G11  C02044134   1.912   3.620   8.493
   648G11  C01I44135   1.817   3.539   8.443
   648G11  C01H44136   1.839   3.472   8.321
   648G11  C00K44137   1.736   3.425   8.242
   648G11  C01S44138   1.605   3.463   8.270
   648G11  C01444139   1.503   3.454   8.182
   648G11  C00J44140   1.763   3.360   8.125
   648G11  C00I44141   1.894   3.337   8.095
   648G11  C00H44142   2.000   3.384   8.170
   648G11  C00G44143   2.128   3.383   8.123
   648G11  C00S44144   1.916   3.274   7.974
   648G11  C00T44145   2.049   3.251   7.945
   648G11  C00U44146   2.075   3.193   7.822
   648G11  C00R44147   1.814   3.236   7.886
   648G11  C00L44148   1.659   3.343   8.035
   648G11  C02844149   1.972   3.451   8.285
   648G11  C02344150   2.074   3.529   8.341
   648G11  C02444151   2.207   3.529   8.296
   648G11  C02144152   2.045   3.614   8.446
   648G11  C02244153   2.140   3.701   8.499
   648G11  C02H44154   2.274   3.694   8.454
   648G11  C03044155   2.374   3.781   8.504
   648G11  C03444156   2.339   3.868   8.600
   648G11  C02P44157   2.102   3.786   8.599
   648G11  C02B44158   1.969   3.815   8.627
   648G11  C01J44159   1.684   3.560   8.473
   648G11  C01X44160   1.490   3.860   8.521
   648G11  C01T44161   1.581   3.533   8.388
   648G11  H00944162   0.917   3.866   8.372
   648G11  C01P44163   1.137   3.649   8.233
   648G11  C01R44164   1.383   3.517   8.207
   648G11  C00Z44165   1.190   3.389   7.920
   648G11  O00044166   1.209   3.312   7.805
   648G11  C00M44167   1.529   3.390   8.063
   648G11  C00Y44168   1.339   3.264   7.783
   648G11  C01344169   1.360   3.166   7.677
   648G11  H00144170   1.271   3.140   7.621
   648G11  C00Q44171   1.683   3.271   7.917
   648G11  C00144172   1.489   3.126   7.643
   648G11  C00044173   1.507   3.042   7.532
   648G11  H00644174   1.426   2.995   7.480
   648G11  C00W44175   1.837   3.174   7.761
   648G11  C01G44176   1.633   3.029   7.481
   648G11  H00544177   1.644   2.971   7.390
   648G11  C01C44178   1.863   3.052   7.317
   648G11  H00244179   1.771   3.035   7.262
   648G11  C01B44180   1.993   3.046   7.264
   648G11  C01D44181   2.035   3.022   7.125
   648G11  H00344182   1.971   3.001   7.041
   648G11  C01E44183   2.163   3.047   7.099
   648G11  H00444184   2.200   3.038   6.997
   648G11  O00244185   2.256   3.075   7.203
   648G11  C01A44186   2.085   3.063   7.369
   648G11  C00V44187   1.976   3.151   7.727
   648G11  C01944188   2.224   3.088   7.338
   648G11  C02E44189   2.777   3.287   7.411
   648G11  C0FX44190   2.889   3.319   7.341
   648G11  C0FW44191   2.983   3.410   7.387
   648G11  C0GB44192   2.910   3.257   7.218
   648G11  C0G344193   2.762   3.347   7.538
   648G11  C07H44194   2.857   3.435   7.593
   648G11  C0GC44195   2.820   3.163   7.166
   648G11  C0G244196   3.025   3.280   7.149
   648G11  C0G144197   3.113   3.378   7.188
   648G11  C0FB44198   3.438   3.508   7.090
   648G11  C0F244199   3.388   3.665   7.321
   648G11  C0FY44200   3.093   3.440   7.311
   648G11  C0F544201   3.253   3.699   7.518
   648G11  C0FV44202   2.967   3.468   7.515
   648G11  C07944203   3.133   3.710   7.729
   648G11  C07A44204   3.016   3.729   7.940
   648G11  C06Y44205   2.801   3.656   8.105
   648G11  C07D44206   2.843   3.489   7.720
   648G11  C01F44207   2.648   3.324   7.614
   648G11  C00A44208   2.425   3.224   7.627
   648G11  C00X44209   2.198   3.193   7.770
   648G11  C00F44210   2.158   3.316   8.011
   648G11  C02944211   2.507   3.412   7.937
   648G11  C02544212   2.234   3.454   8.186
   648G11  C06U44213   2.582   3.555   8.122
   648G11  C02A44214   2.305   3.613   8.351
   648G11  C05Y44215   2.499   3.791   8.453
   648G11  C05Z44216   2.591   3.890   8.497
   648G11  C06044217   2.550   3.983   8.595
   648G11  C06244218   2.627   4.086   8.639
   648G11  C06T44219   2.681   3.641   8.174
   648G11  C06A44220   2.718   3.908   8.430
   648G11  C06Z44221   2.889   3.758   8.142
   648G11  C06Q44222   3.051   3.985   8.204
   648G11  C06844223   2.798   4.014   8.473
   648G11  C06744224   2.751   4.107   8.571
   648G11  C06344225   2.961   4.478   8.599
   648G11  C06C44226   3.015   4.612   8.593
   648G11  C06D44227   2.990   4.705   8.691
   648G11  C06E44228   3.032   4.838   8.692
   648G11  C07Q44229   3.117   4.873   8.591
   648G11  C07P44230   3.160   4.775   8.495
   648G11  C07T44231   3.256   4.809   8.405
   648G11  C07U44232   3.305   4.710   8.316
   648G11  C07V44233   3.395   4.749   8.219
   648G11  C08444234   3.435   4.883   8.206
   648G11  C08C44235   3.384   4.978   8.292
   648G11  C08B44236   3.419   5.112   8.283
   648G11  C08A44237   3.372   5.197   8.375
   648G11  C08944238   3.295   5.168   8.481
   648G11  C08844239   3.257   5.266   8.578
   648G11  C08744240   3.166   5.233   8.675
   648G11  C08644241   3.110   5.103   8.673
   648G11  C08X44242   3.313   5.395   8.574
   648G11  C08T44243   3.372   5.434   8.449
   648G11  C08D44244   3.252   5.037   8.485
   648G11  C08U44245   3.393   5.331   8.358
   648G11  C08V44246   3.478   5.375   8.258
   648G11  C0CY44247   3.542   5.282   8.173
   648G11  C0CX44248   3.620   5.330   8.076
   648G11  C0CW44249   3.669   5.240   7.982
   648G11  C0CV44250   3.640   5.104   7.991
   648G11  C0D444251   3.553   5.061   8.091
   648G11  C0CU44252   3.692   5.013   7.901
   648G11  C0CT44253   3.759   5.055   7.785
   648G11  C0CS44254   3.777   5.194   7.769
   648G11  C0D644255   3.658   4.884   7.932
   648G11  C0EC44256   3.572   4.835   8.025
   648G11  C07X44257   3.540   4.697   8.039
   648G11  C0DL44258   3.708   4.800   7.840
   648G11  C0DK44259   3.677   4.663   7.852
   648G11  C0DN44260   3.741   4.601   7.749
   648G11  C0D844261   3.782   4.826   7.721
   648G11  C08W44262   3.508   5.506   8.266
   648G11  C0CQ44263   3.596   5.559   8.163
   648G11  C09344264   3.506   5.152   8.185
   648G11  C09244265   3.522   4.927   8.108
   648G11  C08544266   3.300   4.942   8.397
   648G11  C07S44267   3.158   5.004   8.580
   648G11  C06F44268   2.985   4.936   8.776
   648G11  C07O44269   3.108   4.646   8.496
   648G11  C07N44270   3.160   4.550   8.409
   648G11  C05D44271   2.905   4.665   8.788
   648G11  C05C44272   2.863   4.761   8.884
   648G11  C05N44273   2.776   4.706   8.967
   648G11  C05M44274   2.588   4.389   8.855
   648G11  C05I44275   2.577   4.190   8.728
   648G11  C06144276   2.421   3.969   8.640
   648G11  C02Q44277   2.205   3.865   8.642
   648G11  C02O44278   1.921   3.917   8.711
   648G11  C03Q44279   2.174   4.144   8.839
   648G11  C03O44280   2.132   4.356   8.944
   648G11  C03L44281   1.815   4.499   9.047
   648G11  C02S44282   1.822   4.176   8.865
   648G11  C02T44283   1.549   4.232   8.843
   648G11  C03K44284   1.673   4.533   9.045
   648G11  C03I44285   1.412   4.265   8.828
   648G11  C03G44286   1.139   4.334   8.799
   648G11  H00D44287   1.033   4.354   8.795
   648G11  C03J44288   1.392   4.583   9.018
   648G11  C03W44289   1.268   4.824   9.107
   648G11  C04I44290   1.472   4.894   9.195
   648G11  C04K44291   1.637   5.075   9.301
   648G11  C04N44292   1.734   5.165   9.337
   648G11  C04X44293   1.965   5.247   9.326
   648G11  C05044294   2.196   5.333   9.286
   648G11  C05W44295   2.278   5.061   9.257
   648G11  C05S44296   2.638   5.336   9.163
   648G11  C05R44297   2.568   4.999   9.214
   648G11  C05O44298   2.710   4.790   9.059
   648G11  C05B44299   2.902   4.898   8.878
   648G11  C05A44300   2.802   5.194   9.064
   648G11  C07R44301   3.025   5.070   8.774
   648G11  C08N44302   3.118   5.330   8.766
   648G11  C08M44303   3.194   5.450   8.777
   648G11  C08L44304   3.163   5.537   8.882
   648G11  C09144305   2.757   5.327   9.070
   648G11  C09K44306   2.769   5.677   9.009
   648G11  H00M44307   2.666   5.679   8.976
   648G11  C08K44308   3.043   5.512   8.955
   648G11  C09J44309   2.849   5.794   9.042
   648G11  C09I44310   2.869   5.930   8.993
   648G11  C09L44311   2.783   6.043   9.001
   648G11  H00N44312   2.679   6.028   9.026
   648G11  C09Q44313   2.832   6.165   8.982
   648G11  H00O44314   2.763   6.248   8.989
   648G11  O00B44315   2.965   6.196   8.949
   648G11  C09G44316   3.058   6.089   8.930
   648G11  C09F44317   3.181   6.120   8.867
   648G11  O00A44318   3.192   6.260   8.836
   648G11  C09P44319   3.261   6.291   8.730
   648G11  H00P44320   3.230   6.374   8.668
   648G11  C09O44321   3.360   6.205   8.678
   648G11  C09D44322   3.369   6.066   8.717
   648G11  C09C44323   3.460   5.965   8.665
   648G11  C09N44324   3.523   5.963   8.541
   648G11  C09T44325   3.504   6.063   8.441
   648G11  C09S44326   3.523   6.195   8.497
   648G11  C0CP44327   3.641   6.246   8.440
   648G11  C0CN44328   3.700   6.153   8.350
   648G11  C0CO44329   3.829   6.182   8.304
   648G11  H01444330   3.866   6.124   8.220
   648G11  C0CZ44331   3.905   6.294   8.353
   648G11  H01544332   4.008   6.298   8.320
   648G11  C0D044333   3.835   6.386   8.441
   648G11  C0G544334   3.895   6.497   8.513
   648G11  H01F44335   3.998   6.522   8.494
   648G11  C0G444336   3.828   6.574   8.600
   648G11  H01G44337   3.881   6.654   8.649
   648G11  O00H44338   3.701   6.553   8.638
   648G11  C0D244339   3.637   6.444   8.586
   648G11  C09V44340   3.514   6.397   8.637
   648G11  H00Q44341   3.465   6.460   8.710
   648G11  C0D144342   3.703   6.364   8.488
   648G11  C09R44343   3.455   6.268   8.595
   648G11  C09H44344   3.009   5.962   8.974
   648G11  C09E44345   3.276   6.023   8.817
   648G11  C09B44346   3.483   5.844   8.717
   648G11  C08Z44347   3.238   5.661   8.880
   648G11  C08O44348   3.302   5.477   8.686
   648G11  C09A44349   3.566   5.757   8.641
   648G11  C08S44350   3.437   5.547   8.386
   648G11  C09944351   3.590   5.834   8.524
   648G11  C09U44352   3.608   6.042   8.336
   648G11  C0BO44353   3.753   5.929   7.897
   648G11  C0CL44354   3.623   5.698   8.159
   648G11  C0D344355   3.645   5.469   8.064
   648G11  C0D544356   3.733   5.287   7.868
   648G11  C0BR44357   3.789   5.699   7.824
   648G11  C0BQ44358   3.792   5.836   7.800
   648G11  C0BL44359   3.817   6.114   7.756
   648G11  C0AF44360   3.914   6.207   7.519
   648G11  C0BH44361   3.925   5.844   7.462
   648G11  C0BG44362   3.973   5.758   7.365
   648G11  C0BD44363   4.028   5.945   7.215
   648G11  C0AG44364   3.961   6.246   7.401
   648G11  C0AI44365   4.056   6.435   7.278
   648G11  C0AV44366   4.240   6.519   7.104
   648G11  C0BB44367   4.132   6.193   6.963
   648G11  O00C44368   4.390   6.455   6.917
   648G11  C0BC44369   4.204   6.130   6.868
   648G11  C0B944370   4.081   5.999   7.097
   648G11  O00E44371   4.225   5.693   6.954
   648G11  C0CA44372   4.221   5.554   6.967
   648G11  O00F44373   4.287   5.483   6.890
   648G11  C0BF44374   4.034   5.812   7.246
   648G11  C0C544375   4.136   5.508   7.073
   648G11  C0C444376   4.123   5.366   7.093
   648G11  H01144377   4.162   5.293   7.024
   648G11  C0C844378   3.967   5.618   7.381
   648G11  C0C244379   4.055   5.316   7.205
   648G11  C0C344380   4.046   5.173   7.236
   648G11  C0DY44381   4.085   5.072   7.148
   648G11  H01644382   4.126   5.070   7.048
   648G11  C0DX44383   4.050   4.953   7.221
   648G11  C0DW44384   4.044   4.833   7.147
   648G11  C0BY44385   3.904   5.432   7.525
   648G11  C0DB44386   3.991   5.124   7.351
   648G11  C0CC44387   3.843   5.242   7.656
   648G11  C0D744388   3.813   4.967   7.689
   648G11  C0DZ44389   3.981   4.982   7.353
   648G11  C0DM44390   3.806   4.693   7.666
   648G11  C0DQ44391   3.943   4.681   7.330
   648G11  C0DV44392   3.989   4.718   7.198
   648G11  C0E044393   4.076   4.802   7.009
   648G11  C0FO44394   4.167   4.490   6.879
   648G11  C0E344395   4.202   4.831   6.938
   648G11  H01744396   4.276   4.902   6.973
   648G11  C0GV44397   4.293   4.498   6.823
   648G11  C0ES44398   4.142   4.376   6.963
   648G11  C0GQ44399   4.444   4.176   6.874
   648G11  C0FJ44400   4.309   3.948   7.129
   648G11  C0ED44401   4.111   4.151   7.134
   648G11  C0ER44402   3.934   3.873   7.217
   648G11  C0EP44403   3.774   3.974   7.346
   648G11  C0E644404   3.946   4.299   7.259
   648G11  C0DE44405   3.827   4.387   7.535
   648G11  C0EA44406   3.619   4.061   7.535
   648G11  C0DF44407   3.784   4.373   7.669
   648G11  C08044408   3.509   4.192   7.831
   648G11  C0DO44409   3.724   4.467   7.751
   648G11  C0DJ44410   3.594   4.608   7.952
   648G11  C07K44411   3.396   4.307   8.044
   648G11  C07W44412   3.447   4.653   8.134
   648G11  C08344413   3.257   4.583   8.314
   648G11  C07J44414   3.290   4.269   8.137
   648G11  C06O44415   3.086   4.194   8.323
   648G11  C06M44416   3.106   4.417   8.414
   658G11  C07144417   0.775  10.459   5.363
   658G11  C07L44418   0.708  10.424   5.247
   658G11  C07M44419   0.568  10.406   5.247
   658G11  C07Y44420   0.500  10.378   5.123
   658G11  C08144421   0.565  10.336   5.009
   658G11  C08244422   0.491  10.313   4.890
   658G11  C0DI44423   0.532  10.264   4.755
   658G11  C0DH44424   0.655  10.237   4.697
   658G11  C0DG44425   0.642  10.177   4.565
   658G11  C0E944426   0.717  10.205   4.443
   658G11  C0E844427   0.610  10.198   4.341
   658G11  C0E744428   0.624  10.161   4.197
   658G11  C0EB44429   0.749  10.119   4.140
   658G11  C0EF44430   0.777  10.031   4.026
   658G11  C0EE44431   0.691   9.951   3.951
   658G11  C0FD44432   0.723   9.818   3.909
   658G11  C0FE44433   0.832   9.746   3.959
   658G11  H01B44434   0.899   9.796   4.027
   658G11  C0FF44435   0.852   9.612   3.939
   658G11  H01A44436   0.938   9.564   3.983
   658G11  C0FG44437   0.759   9.552   3.851
   658G11  H01844438   0.762   9.446   3.831
   658G11  C0FH44439   0.661   9.623   3.781
   658G11  C0FI44440   0.578   9.570   3.677
   658G11  H01944441   0.604   9.471   3.643
   658G11  O00K44442   0.471   9.633   3.621
   658G11  C0FL44443   0.442   9.753   3.670
   658G11  C0FK44444   0.528   9.823   3.768
   658G11  C0FM44445   0.496   9.952   3.805
   658G11  C0FN44446   0.384  10.011   3.742
   658G11  C0FP44447   0.306   9.945   3.644
   658G11  C0GO44448   0.184   9.991   3.588
   658G11  C0GN44449   0.089   9.921   3.516
   658G11  C0GR44450   0.132   9.791   3.481
   658G11  C0GS44451   0.053   9.707   3.402
   658G11  H01Q44452   0.098   9.614   3.371
   658G11  C0GT44453  -0.076   9.750   3.364
   658G11  H01O44454  -0.145   9.690   3.307
   658G11  C0GU44455  -0.117   9.878   3.398
   658G11  H01P44456  -0.213   9.923   3.377
   658G11  O00L44457   0.253   9.745   3.524
   658G11  C0GM44458  -0.033   9.969   3.476
   658G11  C0GL44459  -0.065  10.099   3.528
   658G11  H01R44460  -0.163  10.139   3.510
   658G11  C0GK44461   0.032  10.177   3.596
   658G11  C0GP44462   0.030  10.295   3.682
   658G11  C0E244463   0.167  10.322   3.727
   658G11  C0E144464   0.156  10.384   3.857
   658G11  C0DU44465   0.214  10.334   3.979
   658G11  C0DT44466   0.336  10.261   3.999
   658G11  C0E444467   0.396  10.183   3.904
   658G11  C0E544468   0.503  10.124   3.965
   658G11  C0DS44469   0.385  10.235   4.123
   658G11  C0DR44470   0.307  10.273   4.237
   658G11  C0DD44471   0.339  10.250   4.364
   658G11  C0DC44472   0.211  10.291   4.436
   658G11  C0DP44473   0.105  10.329   4.347
   658G11  C0DA44474  -0.035  10.371   4.376
   658G11  C0D944475  -0.110  10.387   4.508
   658G11  C0CR44476  -0.254  10.405   4.520
   658G11  C0C044477  -0.326  10.417   4.410
   658G11  C0BZ44478  -0.465  10.442   4.399
   658G11  C0C144479  -0.535  10.447   4.278
   658G11  C0C744480  -0.672  10.444   4.273
   658G11  C0C644481  -0.741  10.431   4.155
   658G11  C0C944482  -0.876  10.410   4.162
   658G11  C0B844483  -0.946  10.389   4.044
   658G11  C0B744484  -1.084  10.362   4.044
   658G11  C0B644485  -1.181  10.341   3.931
   658G11  C0B544486  -1.173  10.390   3.795
   658G11  H00Z44487  -1.086  10.426   3.742
   658G11  C0B444488  -1.318  10.400   3.756
   658G11  H01044489  -1.370  10.449   3.676
   658G11  C0B344490  -1.400  10.357   3.867
   658G11  C0AP44491  -1.531  10.373   3.944
   658G11  C0AQ44492  -1.496  10.339   4.074
   658G11  C0AR44493  -1.564  10.371   4.191
   658G11  C0AS44494  -1.489  10.371   4.295
   658G11  C0AT44495  -1.351  10.357   4.300
   658G11  C0BA44496  -1.281  10.335   4.187
   658G11  C0AU44497  -1.280  10.400   4.411
   658G11  C0BE44498  -1.140  10.418   4.406
   658G11  C0BI44499  -1.080  10.458   4.523
   658G11  C0BJ44500  -1.153  10.500   4.634
   658G11  C0BK44501  -1.088  10.531   4.748
   658G11  C0BW44502  -0.950  10.535   4.751
   658G11  C0BV44503  -0.878  10.510   4.634
   658G11  C0BU44504  -0.735  10.512   4.638
   658G11  C0BX44505  -0.665  10.481   4.516
   658G11  C0BT44506  -0.668  10.530   4.756
   658G11  C0CD44507  -0.529  10.510   4.759
   658G11  C0CB44508  -0.463  10.473   4.639
   658G11  C0CE44509  -0.463  10.527   4.880
   658G11  C0CK44510  -0.530  10.551   4.999
   658G11  C0BS44511  -0.674  10.567   4.995
   658G11  C0CJ44512  -0.745  10.587   5.117
   658G11  C0BP44513  -0.884  10.599   5.110
   658G11  C0CI44514  -0.957  10.605   5.225
   658G11  C0CH44515  -1.093  10.579   5.216
   658G11  H01244516  -1.152  10.570   5.306
   658G11  C0BN44517  -1.167  10.581   5.097
   658G11  C0CG44518  -1.305  10.591   5.097
   658G11  C0CF44519  -1.378  10.624   5.219
   658G11  H01344520  -1.336  10.619   5.318
   658G11  O00G44521  -1.512  10.638   5.219
   658G11  C0AA44522  -1.578  10.627   5.097
   658G11  C0A944523  -1.712  10.648   5.100
   658G11  H00U44524  -1.767  10.673   5.190
   658G11  C0A844525  -1.786  10.626   4.981
   658G11  H00V44526  -1.893  10.628   4.995
   658G11  C0A744527  -1.736  10.580   4.858
   658G11  C0A644528  -1.591  10.569   4.853
   658G11  C0A544529  -1.514  10.535   4.741
   658G11  C0A444530  -1.574  10.517   4.617
   658G11  C0A344531  -1.702  10.521   4.549
   658G11  C0A244532  -1.822  10.534   4.613
   658G11  C0A144533  -1.944  10.522   4.547
   658G11  C0A044534  -1.988  10.506   4.409
   658G11  C09Z44535  -2.125  10.507   4.391
   658G11  C09Y44536  -2.186  10.527   4.257
   658G11  H00Y44537  -2.292  10.521   4.242
   658G11  C09X44538  -2.102  10.515   4.142
   658G11  C09W44539  -2.163  10.524   4.011
   658G11  H00R44540  -2.269  10.522   3.988
   658G11  C0AX44541  -2.076  10.513   3.902
   658G11  H00S44542  -2.121  10.524   3.804
   658G11  C0AW44543  -1.937  10.496   3.915
   658G11  H00T44544  -1.879  10.484   3.825
   658G11  C0AN44545  -1.879  10.478   4.037
   658G11  C0AO44546  -1.746  10.441   4.049
   658G11  C0AM44547  -1.958  10.499   4.154
   658G11  C0B244548  -2.227  10.499   4.497
   658G11  O00D44549  -2.345  10.493   4.480
   658G11  C0B144550  -2.177  10.519   4.631
   658G11  H00W44551  -2.255  10.533   4.704
   658G11  C0AL44552  -1.905  10.483   4.292
   658G11  C0AK44553  -1.767  10.452   4.295
   658G11  C0B044554  -2.042  10.532   4.654
   658G11  C0AZ44555  -1.976  10.543   4.780
   658G11  H00X44556  -2.029  10.541   4.874
   658G11  C0AJ44557  -1.688  10.468   4.413
   658G11  C0AH44558  -1.491  10.453   4.525
   658G11  C0AE44559  -1.370  10.526   4.744
   658G11  C0AD44560  -1.304  10.550   4.863
   658G11  C0AY44561  -1.832  10.559   4.755
   658G11  C0AB44562  -1.514  10.594   4.973
   658G11  C0AC44563  -1.373  10.580   4.977
   658G11  C0BM44564  -1.095  10.574   4.981
   658G11  C0CM44565  -0.893  10.628   5.352
   658G11  C09M44566  -0.753  10.597   5.370
   658G11  C09844567  -0.711  10.565   5.503
   658G11  C08R44568  -0.580  10.550   5.562
   658G11  C08Q44569  -0.583  10.520   5.704
   658G11  C08P44570  -0.495  10.547   5.815
   658G11  C08Y44571  -0.555  10.560   5.943
   658G11  C09744572  -0.691  10.582   5.950
   658G11  C09644573  -0.718  10.681   6.034
   658G11  C09044574  -0.601  10.702   6.115
   658G11  C09544575  -0.576  10.811   6.206
   658G11  C09444576  -0.463  10.822   6.295
   658G11  C08J44577  -0.332  10.759   6.286
   658G11  C08I44578  -0.228  10.848   6.326
   658G11  C08H44579  -0.102  10.803   6.271
   658G11  C08G44580  -0.135  10.711   6.162
   658G11  C08F44581  -0.065  10.644   6.054
   658G11  C08E44582   0.078  10.624   6.062
   658G11  C05944583   0.160  10.651   6.180
   658G11  C05844584   0.300  10.613   6.176
   658G11  C05744585   0.391  10.638   6.281
   658G11  C05644586   0.332  10.701   6.396
   658G11  C05544587   0.197  10.703   6.420
   658G11  C05444588   0.176  10.810   6.519
   658G11  C05344589   0.302  10.863   6.565
   658G11  C05244590   0.330  10.978   6.646
   658G11  C05144591   0.220  11.062   6.698
   658G11  C05U44592   0.078  11.060   6.660
   658G11  C05T44593   0.003  10.982   6.564
   658G11  C06K44594  -0.134  11.005   6.591
   658G11  H00J44595  -0.210  10.943   6.546
   658G11  C06L44596  -0.143  11.114   6.683
   658G11  H00I44597  -0.228  11.173   6.717
   658G11  C05V44598  -0.011  11.145   6.725
   658G11  C06J44599   0.021  11.241   6.816
   658G11  H00K44600  -0.051  11.305   6.866
   658G11  C05X44601   0.155  11.260   6.844
   658G11  C06I44602   0.207  11.356   6.931
   658G11  H00L44603   0.137  11.424   6.978
   658G11  C04Z44604   0.343  11.383   6.967
   658G11  C06H44605   0.381  11.494   7.049
   658G11  H00H44606   0.302  11.555   7.091
   658G11  C04Y44607   0.515  11.536   7.058
   658G11  C06G44608   0.546  11.657   7.139
   658G11  O00944609   0.468  11.708   7.210
   658G11  O00844610   0.675  11.706   7.122
   658G11  C04P44611   0.769  11.637   7.058
   658G11  C04J44612   0.906  11.676   7.044
   658G11  C04Q44613   0.962  11.795   7.087
   658G11  H00E44614   0.892  11.849   7.149
   658G11  C04M44615   1.095  11.842   7.066
   658G11  C04R44616   1.151  11.956   7.124
   658G11  H00F44617   1.085  12.011   7.189
   658G11  C04S44618   1.281  11.979   7.108
   658G11  H00G44619   1.308  12.073   7.155
   658G11  O00744620   1.368  11.902   7.031
   658G11  C03V44621   1.311  11.792   6.965
   658G11  C03U44622   1.388  11.719   6.874
   658G11  O00644623   1.526  11.741   6.885
   658G11  C03F44624   1.598  11.686   6.780
   658G11  C03E44625   1.543  11.590   6.692
   658G11  C03D44626   1.414  11.543   6.712
   658G11  C03C44627   1.363  11.437   6.643
   658G11  C03B44628   1.450  11.383   6.545
   658G11  C03A44629   1.400  11.276   6.464
   658G11  C03944630   1.271  11.220   6.487
   658G11  C03844631   1.270  11.116   6.387
   658G11  C03744632   1.399  11.122   6.327
   658G11  C03644633   1.437  11.016   6.246
   658G11  C02R44634   1.557  10.998   6.179
   658G11  C03544635   1.536  10.884   6.096
   658G11  C03R44636   1.403  10.849   6.104
   658G11  C03S44637   1.326  10.782   6.010
   658G11  C04944638   1.190  10.781   6.024
   658G11  C04844639   1.138  10.846   6.138
   658G11  C03P44640   1.210  10.931   6.229
   658G11  C04744641   1.006  10.806   6.158
   658G11  C04644642   0.937  10.826   6.277
   658G11  C04544643   0.961  10.911   6.384
   658G11  C03T44644   1.067  10.998   6.415
   658G11  C04444645   1.032  11.063   6.532
   658G11  C04344646   0.919  10.999   6.589
   658G11  C04244647   0.841  11.099   6.651
   658G11  C04144648   0.937  11.208   6.667
   658G11  C04044649   0.921  11.312   6.763
   658G11  C03Z44650   1.015  11.410   6.803
   658G11  C04H44651   0.953  11.488   6.903
   658G11  C04G44652   0.822  11.455   6.905
   658G11  C03N44653   1.150  11.452   6.762
   658G11  C03Y44654   1.200  11.566   6.827
   658G11  C03X44655   1.125  11.642   6.927
   658G11  C04F44656   0.797  11.343   6.829
   658G11  C04E44657   0.666  11.282   6.833
   658G11  C04O44658   0.572  11.351   6.907
   658G11  C04D44659   0.623  11.165   6.764
   658G11  C04V44660   0.486  11.127   6.758
   658G11  C04W44661   0.385  11.202   6.818
   658G11  C04C44662   0.696  11.075   6.682
   658G11  C04L44663   0.597  10.976   6.636
   658G11  C04U44664   0.626  10.860   6.553
   658G11  C05Q44665   0.536  10.783   6.480
   658G11  C05P44666   0.601  10.722   6.370
   658G11  C04T44667   0.730  10.772   6.364
   658G11  C04B44668   0.747  10.849   6.475
   658G11  C03M44669   1.067  11.182   6.604
   658G11  C04A44670   0.864  10.920   6.485
   658G11  C05H44671   0.817  10.759   6.258
   658G11  C05G44672   0.810  10.698   6.131
   658G11  C05F44673   0.710  10.609   6.090
   658G11  C05E44674   0.692  10.570   5.955
   658G11  C05L44675   0.772  10.566   5.831
   658G11  C05K44676   0.907  10.614   5.828
   658G11  C05J44677   0.981  10.681   5.932
   658G11  C06644678   0.973  10.597   5.708
   658G11  C06544679   0.913  10.539   5.597
   658G11  C06444680   0.774  10.516   5.599
   658G11  C06N44681   0.979  10.523   5.474
   658G11  C06944682   1.113  10.555   5.461
   658G11  C06P44683   1.180  10.545   5.336
   658G11  C06R44684   1.314  10.572   5.327
   658G11  C06B44685   1.380  10.614   5.434
   658G11  C06S44686   1.516  10.643   5.426
   658G11  C02G44687   1.583  10.697   5.534
   658G11  C02F44688   1.715  10.748   5.514
   658G11  C02744689   1.782  10.735   5.394
   658G11  C02644690   1.907  10.795   5.375
   658G11  C00E44691   1.968  10.782   5.253
   658G11  C00D44692   2.089  10.839   5.239
   658G11  C00C44693   2.147  10.830   5.118
   658G11  C00B44694   2.095  10.779   5.005
   658G11  C01544695   1.968  10.719   5.022
   658G11  C07F44696   1.896  10.677   4.910
   658G11  C07E44697   1.767  10.634   4.925
   658G11  C06W44698   1.709  10.626   5.049
   658G11  C06V44699   1.778  10.671   5.161
   658G11  C06X44700   1.574  10.590   5.062
   658G11  C07B44701   1.502  10.551   4.953
   658G11  C07C44702   1.563  10.545   4.826
   658G11  C0FU44703   1.490  10.502   4.717
   658G11  C0F744704   1.545  10.502   4.593
   658G11  C0F644705   1.473  10.454   4.481
   658G11  C0F844706   1.532  10.459   4.357
   658G11  C0F944707   1.462  10.409   4.249
   658G11  C0FA44708   1.520  10.413   4.122
   658G11  C0FZ44709   1.649  10.468   4.107
   658G11  C0G044710   1.705  10.485   3.981
   658G11  C0GD44711   1.632  10.433   3.868
   658G11  C0FC44712   1.517  10.357   3.889
   658G11  C0GH44713   1.460  10.288   3.780
   658G11  C0EY44714   1.349  10.205   3.799
   658G11  C0EX44715   1.298  10.114   3.701
   658G11  C0EW44716   1.182  10.045   3.730
   658G11  C0FR44717   1.129   9.951   3.635
   658G11  H01D44718   1.041   9.888   3.643
   658G11  C0FS44719   1.197   9.934   3.515
   658G11  H01C44720   1.178   9.853   3.446
   658G11  C0GJ44721   1.309  10.009   3.485
   658G11  H01N44722   1.336  10.012   3.380
   658G11  C0EV44723   1.117  10.065   3.851
   658G11  C0FT44724   0.992   9.997   3.873
   658G11  H01E44725   0.938   9.925   3.814
   658G11  C0EU44726   1.167  10.149   3.947
   658G11  C0ET44727   1.105  10.177   4.067
   658G11  C0EI44728   1.151  10.250   4.176
   658G11  C0F144729   1.276  10.295   4.158
   658G11  C0F044730   1.336  10.279   4.033
   658G11  C0EH44731   1.070  10.264   4.295
   658G11  C0EG44732   0.930  10.222   4.306
   658G11  C0EJ44733   1.135  10.312   4.407
   658G11  C0F344734   1.269  10.359   4.396
   658G11  C0EK44735   1.073  10.315   4.533
   658G11  C0EL44736   0.936  10.277   4.545
   658G11  C0EM44737   0.890  10.290   4.686
   658G11  C0EN44738   0.980  10.323   4.783
   658G11  C07I44739   0.919  10.335   4.907
   658G11  C07444740   0.982  10.388   5.016
   658G11  C07344741   0.912  10.414   5.128
   658G11  C07244742   0.980  10.460   5.242
   658G11  C07544743   1.113  10.422   4.998
   658G11  C07644744   1.173  10.418   4.874
   658G11  C07844745   1.304  10.463   4.859
   658G11  C07G44746   1.178  10.478   5.101
   658G11  C07044747   1.311  10.515   5.090
   658G11  C07Z44748   0.783  10.306   4.898
   658G11  C07744749   1.112  10.364   4.765
   658G11  C0EO44750   1.158  10.361   4.637
   658G11  C0F444751   1.287  10.410   4.622
   658G11  C0EQ44752   0.972  10.132   4.079
   658G11  C0FQ44753   1.361  10.105   3.576
   658G11  C0GI44754   1.467  10.191   3.560
   658G11  H01L44755   1.521  10.176   3.467
   658G11  C0EZ44756   1.288  10.209   3.925
   658G11  C0GG44757   1.514  10.287   3.651
   658G11  C0GF44758   1.623  10.373   3.631
   658G11  H01M44759   1.669  10.355   3.535
   658G11  C0GE44760   1.681  10.451   3.732
   658G11  H01K44761   1.770  10.511   3.718
   658G11  O00J44762   1.817  10.553   3.957
   658G11  C0GA44763   1.889  10.596   4.064
   658G11  C0G944764   1.999  10.673   4.045
   658G11  H01H44765   2.021  10.696   3.942
   658G11  C0G844766   2.076  10.724   4.149
   658G11  C0G744767   2.197  10.802   4.136
   658G11  H01I44768   2.241  10.813   4.039
   658G11  O00I44769   2.262  10.862   4.244
   658G11  C0G644770   2.218  10.824   4.370
   658G11  H01J44771   2.256  10.895   4.442
   658G11  C02D44772   2.106  10.741   4.393
   658G11  C02C44773   2.058  10.724   4.530
   658G11  C01744774   2.136  10.767   4.641
   658G11  C01644775   2.076  10.756   4.769
   658G11  O00144776   2.263  10.813   4.628
   658G11  C01844777   2.322  10.886   4.727
   658G11  C00944778   2.276  10.867   4.865
   658G11  C00844779   2.332  10.923   4.980
   658G11  C00744780   2.443  11.008   5.011
   658G11  C00644781   2.500  11.089   4.914
   658G11  C00544782   2.604  11.187   4.941
   658G11  C00444783   2.637  11.255   5.069
   658G11  C00344784   2.579  11.251   5.199
   658G11  C00244785   2.623  11.345   5.298
   658G11  C00P44786   2.566  11.348   5.428
   658G11  C00O44787   2.605  11.444   5.524
   658G11  C00N44788   2.536  11.461   5.646
   658G11  C01044789   2.570  11.555   5.746
   658G11  C01144790   2.506  11.569   5.870
   658G11  C01Q44791   2.552  11.647   5.975
   658G11  C01U44792   2.675  11.717   5.953
   658G11  C01244793   2.735  11.708   5.820
   658G11  H00044794   2.829  11.760   5.802
   658G11  C01V44795   2.714  11.799   6.065
   658G11  H00744796   2.805  11.853   6.043
   658G11  O00544797   2.647  11.812   6.184
   658G11  C01W44798   2.543  11.725   6.210
   658G11  C03144799   2.500  11.693   6.344
   658G11  C03244800   2.401  11.601   6.373
   658G11  H00A44801   2.379  11.553   6.467
   658G11  C03344802   2.337  11.544   6.262
   658G11  H00B44803   2.276  11.458   6.285
   658G11  C01O44804   2.377  11.568   6.127
   658G11  C01N44805   2.325  11.495   6.020
   658G11  C01M44806   2.200  11.412   6.033
   658G11  C01L44807   2.077  11.383   6.124
   658G11  C01K44808   2.014  11.274   6.062
   658G11  C01Y44809   1.896  11.219   6.097
   658G11  C02I44810   1.821  11.273   6.201
   658G11  C02N44811   1.704  11.202   6.236
   658G11  C02M44812   1.619  11.266   6.332
   658G11  C02L44813   1.664  11.375   6.410
   658G11  C02K44814   1.790  11.437   6.380
   658G11  C02U44815   1.836  11.537   6.457
   658G11  C02V44816   1.760  11.578   6.571
   658G11  C03H44817   1.805  11.681   6.658
   658G11  H00C44818   1.905  11.722   6.653
   658G11  C02W44819   1.946  11.615   6.417
   658G11  C02X44820   2.012  11.562   6.305
   658G11  C02Y44821   2.087  11.674   6.264
   658G11  H00844822   2.144  11.692   6.174
   658G11  C02Z44823   2.083  11.782   6.369
   658G11  O00444824   2.144  11.885   6.379
   658G11  O00344825   1.989  11.741   6.451
   658G11  C02J44826   1.872  11.382   6.273
   658G11  C01Z44827   1.865  11.107   6.021
   658G11  C02044828   1.939  11.067   5.906
   658G11  C01I44829   2.045  11.136   5.865
   658G11  C01H44830   2.118  11.124   5.752
   658G11  C00K44831   2.232  11.208   5.727
   658G11  C01S44832   2.269  11.303   5.816
   658G11  C01444833   2.369  11.394   5.795
   658G11  C00J44834   2.300  11.186   5.609
   658G11  C00I44835   2.258  11.092   5.523
   658G11  C00H44836   2.147  11.015   5.551
   658G11  C00G44837   2.090  10.929   5.460
   658G11  C00S44838   2.319  11.082   5.404
   658G11  C00T44839   2.263  10.985   5.320
   658G11  C00U44840   2.322  10.977   5.197
   658G11  C00R44841   2.419  11.171   5.366
   658G11  C00L44842   2.403  11.276   5.581
   658G11  C02844843   2.079  11.031   5.665
   658G11  C02344844   1.962  10.963   5.696
   658G11  C02444845   1.898  10.887   5.597
   658G11  C02144846   1.886  10.979   5.815
   658G11  C02244847   1.769  10.914   5.838
   658G11  C02H44848   1.712  10.832   5.737
   658G11  C03044849   1.594  10.776   5.756
   658G11  C03444850   1.526  10.793   5.875
   658G11  C02P44851   1.708  10.938   5.959
   658G11  C02B44852   1.752  11.036   6.050
   658G11  C01J44853   2.084  11.233   5.950
   658G11  C01X44854   1.998  11.442   6.236
   658G11  C01T44855   2.186  11.324   5.924
   658G11  H00944856   2.553  11.730   6.431
   658G11  C01P44857   2.490  11.650   6.097
   658G11  C01R44858   2.396  11.489   5.896
   658G11  C00Z44859   2.687  11.633   5.717
   658G11  O00044860   2.745  11.627   5.596
   658G11  C00M44861   2.438  11.374   5.676
   658G11  C00Y44862   2.710  11.533   5.500
   658G11  C01344863   2.777  11.523   5.377
   658G11  H00144864   2.871  11.574   5.364
   658G11  C00Q44865   2.463  11.265   5.455
   658G11  C00144866   2.732  11.435   5.278
   658G11  C00044867   2.792  11.429   5.149
   658G11  H00644868   2.876  11.497   5.148
   658G11  C00W44869   2.479  11.161   5.237
   658G11  C01G44870   2.739  11.351   5.050
   658G11  H00544871   2.786  11.370   4.954
   658G11  C01C44872   2.674  11.207   4.813
   658G11  H00244873   2.756  11.270   4.783
   658G11  C01B44874   2.617  11.120   4.718
   658G11  C01D44875   2.653  11.102   4.579
   658G11  H00344876   2.731  11.161   4.532
   658G11  C01E44877   2.569  11.038   4.500
   658G11  H00444878   2.579  11.039   4.393
   658G11  O00244879   2.459  10.965   4.552
   658G11  C01A44880   2.506  11.054   4.771
   658G11  C00V44881   2.428  11.054   5.149
   658G11  C01944882   2.424  10.972   4.687
   658G11  C02E44883   1.934  10.663   4.544
   658G11  C0FX44884   1.863  10.610   4.435
   658G11  C0FW44885   1.735  10.554   4.454
   658G11  C0GB44886   1.912  10.634   4.302
   658G11  C0G344887   1.882  10.645   4.671
   658G11  C07H44888   1.750  10.593   4.686
   658G11  C0GC44889   2.031  10.699   4.283
   658G11  C0G244890   1.839  10.585   4.196
   658G11  C0G144891   1.714  10.520   4.215
   658G11  C0FB44892   1.458  10.351   4.013
   658G11  C0F244893   1.332  10.357   4.267
   658G11  C0FY44894   1.662  10.506   4.341
   658G11  C0F544895   1.344  10.405   4.495
   658G11  C0FV44896   1.674  10.549   4.580
   658G11  C07944897   1.361  10.457   4.731
   658G11  C07A44898   1.369  10.505   4.967
   658G11  C06Y44899   1.512  10.597   5.185
   658G11  C07D44900   1.694  10.591   4.815
   658G11  C01F44901   1.952  10.694   4.782
   658G11  C00A44902   2.153  10.794   4.881
   658G11  C00X44903   2.274  10.888   5.105
   658G11  C00F44904   2.152  10.913   5.341
   658G11  C02944905   1.907  10.716   5.148
   658G11  C02544906   1.963  10.872   5.476
   658G11  C06U44907   1.714  10.679   5.287
   658G11  C02A44908   1.772  10.825   5.613
   658G11  C05Y44909   1.520  10.712   5.655
   658G11  C05Z44910   1.385  10.688   5.670
   658G11  C06044911   1.316  10.707   5.791
   658G11  C06244912   1.179  10.678   5.801
   658G11  C06T44913   1.583  10.637   5.302
   658G11  C06A44914   1.316  10.635   5.559
   658G11  C06Z44915   1.380  10.561   5.200
   658G11  C06Q44916   1.114  10.496   5.225
   658G11  C06844917   1.179  10.603   5.573
   658G11  C06744918   1.109  10.625   5.693
   658G11  C06344919   0.705  10.517   5.718
   658G11  C06C44920   0.567  10.498   5.717
   658G11  C06D44921   0.490  10.510   5.827
   658G11  C06E44922   0.347  10.509   5.831
   658G11  C07Q44923   0.281  10.502   5.715
   658G11  C07P44924   0.357  10.486   5.596
   658G11  C07T44925   0.292  10.474   5.475
   658G11  C07U44926   0.367  10.446   5.361
   658G11  C07V44927   0.294  10.427   5.244
   658G11  C08444928   0.157  10.454   5.241
   658G11  C08C44929   0.089  10.485   5.355
   658G11  C08B44930  -0.045  10.514   5.349
   658G11  C08A44931  -0.110  10.540   5.467
   658G11  C08944932  -0.058  10.539   5.590
   658G11  C08844933  -0.138  10.563   5.706
   658G11  C08744934  -0.067  10.568   5.828
   658G11  C08644935   0.073  10.553   5.831
   658G11  C08X44936  -0.277  10.574   5.699
   658G11  C08T44937  -0.336  10.577   5.564
   658G11  C08D44938   0.081  10.525   5.592
   658G11  C08U44939  -0.244  10.572   5.459
   658G11  C08V44940  -0.309  10.567   5.338
   658G11  C0CY44941  -0.244  10.535   5.218
   658G11  C0CX44942  -0.324  10.534   5.108
   658G11  C0CW44943  -0.256  10.499   4.991
   658G11  C0CV44944  -0.123  10.468   4.995
   658G11  C0D444945  -0.051  10.474   5.116
   658G11  C0CU44946  -0.056  10.437   4.877
   658G11  C0CT44947  -0.120  10.426   4.757
   658G11  C0CS44948  -0.259  10.452   4.761
   658G11  C0D644949   0.075  10.409   4.892
   658G11  C0EC44950   0.146  10.412   5.011
   658G11  C07X44951   0.284  10.369   5.010
   658G11  C0DL44952   0.138  10.360   4.783
   658G11  C0DK44953   0.270  10.319   4.787
   658G11  C0DN44954   0.302  10.271   4.669
   658G11  C0D844955   0.082  10.340   4.659
   658G11  C08W44956  -0.449  10.589   5.358
   658G11  C0CQ44957  -0.533  10.576   5.242
   658G11  C09344958  -0.110  10.508   5.227
   658G11  C09244959   0.084  10.444   5.125
   658G11  C08544960   0.156  10.493   5.473
   658G11  C07S44961   0.143  10.524   5.715
   658G11  C06F44962   0.281  10.542   5.944
   658G11  C07O44963   0.498  10.479   5.604
   658G11  C07N44964   0.571  10.459   5.485
   658G11  C05D44965   0.561  10.527   5.944
   658G11  C05C44966   0.493  10.538   6.064
   658G11  C05N44967   0.581  10.597   6.148
   658G11  C05M44968   0.931  10.720   6.063
   658G11  C05I44969   1.116  10.716   5.922
   658G11  C06144970   1.395  10.752   5.897
   658G11  C02Q44971   1.594  10.866   5.971
   658G11  C02O44972   1.677  11.078   6.163
   658G11  C03Q44973   1.344  10.932   6.193
   658G11  C03O44974   1.181  11.014   6.343
   658G11  C03L44975   1.186  11.261   6.591
   658G11  C02S44976   1.484  11.215   6.367
   658G11  C02T44977   1.578  11.427   6.511
   658G11  C03K44978   1.233  11.383   6.671
   658G11  C03I44979   1.628  11.530   6.591
   658G11  C03G44980   1.728  11.732   6.764
   658G11  H00D44981   1.765  11.811   6.828
   658G11  C03J44982   1.329  11.606   6.803
   658G11  C03W44983   1.173  11.759   6.982
   658G11  C04I44984   0.997  11.603   6.964
   658G11  C04K44985   0.735  11.522   6.988
   658G11  C04N44986   0.608  11.466   6.985
   658G11  C04X44987   0.435  11.311   6.897
   658G11  C05044988   0.251  11.168   6.788
   658G11  C05W44989   0.463  11.020   6.677
   658G11  C05S44990   0.058  10.877   6.481
   658G11  C05R44991   0.395  10.782   6.496
   658G11  C05O44992   0.530  10.652   6.264
   658G11  C05B44993   0.354  10.563   6.062
   658G11  C05A44994   0.124  10.726   6.302
   658G11  C07R44995   0.143  10.569   5.952
   658G11  C08N44996  -0.138  10.604   5.940
   658G11  C08M44997  -0.284  10.598   5.940
   658G11  C08L44998  -0.354  10.641   6.055
   658G11  C09144999   0.021  10.814   6.348
   658G11  C09K45000  -0.289  10.974   6.313
   658G11  H00M45001  -0.238  11.068   6.304
   658G11  C08K45002  -0.276  10.699   6.164
   658G11  C09J45003  -0.432  10.957   6.318
   658G11  C09I45004  -0.554  11.027   6.269
   658G11  C09L45005  -0.593  11.160   6.272
   658G11  H00N45006  -0.525  11.231   6.317
   658G11  C09Q45007  -0.715  11.198   6.220
   658G11  H00O45008  -0.734  11.304   6.211
   658G11  O00B45009  -0.803  11.111   6.159
   658G11  C09G45010  -0.770  10.974   6.158
   658G11  C09F45011  -0.863  10.897   6.081
   658G11  O00A45012  -0.983  10.957   6.069
   658G11  C09P45013  -1.078  10.878   6.019
   658G11  H00P45014  -1.157  10.839   6.081
   658G11  C09O45015  -1.041  10.815   5.900
   658G11  C09D45016  -0.921  10.742   5.905
   658G11  C09C45017  -0.866  10.648   5.809
   658G11  C09N45018  -0.891  10.630   5.667
   658G11  C09T45019  -0.983  10.704   5.595
   658G11  C09S45020  -1.088  10.777   5.653
   658G11  C0CP45021  -1.153  10.823   5.538
   658G11  C0CN45022  -1.092  10.792   5.417
   658G11  C0CO45023  -1.140  10.862   5.309
   658G11  H01445024  -1.078  10.859   5.220
   658G11  C0CZ45025  -1.270  10.926   5.318
   658G11  H01545026  -1.312  10.981   5.234
   658G11  C0D045027  -1.341  10.943   5.442
   658G11  C0G545028  -1.473  11.014   5.458
   658G11  H01F45029  -1.530  11.043   5.371
   658G11  C0G445030  -1.514  11.033   5.586
   658G11  H01G45031  -1.603  11.093   5.602
   658G11  O00H45032  -1.444  10.995   5.700
   658G11  C0D245033  -1.332  10.918   5.685
   658G11  C09V45034  -1.254  10.878   5.797
   658G11  H00Q45035  -1.291  10.918   5.890
   658G11  C0D145036  -1.277  10.892   5.559
   658G11  C09R45037  -1.124  10.821   5.785
   658G11  C09H45038  -0.643  10.932   6.209
   658G11  C09E45039  -0.832  10.775   6.016
   658G11  C09B45040  -0.766  10.564   5.840
   658G11  C08Z45041  -0.496  10.634   6.044
   658G11  C08O45042  -0.352  10.567   5.816
   658G11  C09A45043  -0.721  10.489   5.729
   658G11  C08S45044  -0.466  10.593   5.499
   658G11  C09945045  -0.792  10.533   5.621
   658G11  C09U45046  -0.986  10.695   5.450
   658G11  C0BO45047  -0.953  10.577   4.986
   658G11  C0CL45048  -0.674  10.582   5.247
   658G11  C0D345049  -0.463  10.549   5.121
   658G11  C0D545050  -0.328  10.493   4.878
   658G11  C0BR45051  -0.740  10.552   4.872
   658G11  C0BQ45052  -0.880  10.555   4.872
   658G11  C0BL45053  -1.167  10.553   4.862
   658G11  C0AF45054  -1.288  10.486   4.639
   658G11  C0BH45055  -0.943  10.467   4.521
   658G11  C0BG45056  -0.874  10.452   4.402
   658G11  C0BD45057  -1.075  10.392   4.288
   658G11  C0AG45058  -1.346  10.441   4.526
   658G11  C0AI45059  -1.558  10.425   4.409
   658G11  C0AV45060  -1.697  10.416   4.182
   658G11  C0BB45061  -1.360  10.301   4.077
   658G11  O00C45062  -1.663  10.415   3.933
   658G11  C0BC45063  -1.311  10.298   3.957
   658G11  C0B945064  -1.144  10.356   4.173
   658G11  O00E45065  -0.886  10.400   3.922
   658G11  C0CA45066  -0.759  10.433   3.908
   658G11  O00F45067  -0.713  10.446   3.793
   658G11  C0BF45068  -0.943  10.416   4.287
   658G11  C0C545069  -0.685  10.439   4.033
   658G11  C0C445070  -0.542  10.448   4.028
   658G11  H01145071  -0.494  10.456   3.931
   658G11  C0C845072  -0.736  10.457   4.397
   658G11  C0C245073  -0.472  10.453   4.154
   658G11  C0C345074  -0.332  10.438   4.163
   658G11  C0DY45075  -0.246  10.443   4.055
   658G11  H01645076  -0.250  10.463   3.949
   658G11  C0DX45077  -0.120  10.411   4.114
   658G11  C0DW45078  -0.003  10.387   4.033
   658G11  C0BY45079  -0.529  10.469   4.519
   658G11  C0DB45080  -0.263  10.417   4.284
   658G11  C0CC45081  -0.322  10.441   4.642
   658G11  C0D745082  -0.054  10.390   4.638
   658G11  C0DZ45083  -0.122  10.407   4.265
   658G11  C0DM45084   0.190  10.282   4.579
   658G11  C0DQ45085   0.170  10.321   4.217
   658G11  C0DV45086   0.126  10.354   4.082
   658G11  C0E045087   0.018  10.404   3.890
   658G11  C0FO45088   0.236  10.203   3.703
   658G11  C0E345089  -0.058  10.341   3.783
   658G11  H01745090  -0.158  10.301   3.787
   658G11  C0GV45091   0.157  10.122   3.616
   658G11  C0ES45092   0.337  10.142   3.781
   658G11  C0GQ45093   0.330   9.810   3.617
   658G11  C0FJ45094   0.636   9.754   3.824
   658G11  C0ED45095   0.568  10.011   3.908
   658G11  C0ER45096   0.912  10.045   3.985
   658G11  C0EP45097   0.879  10.167   4.184
   658G11  C0E645098   0.510  10.168   4.106
   658G11  C0DE45099   0.474  10.199   4.405
   658G11  C0EA45100   0.863  10.235   4.430
   658G11  C0DF45101   0.504  10.187   4.539
   658G11  C08045102   0.769  10.278   4.755
   658G11  C0DO45103   0.439  10.243   4.653
   658G11  C0DJ45104   0.352  10.331   4.899
   658G11  C07K45105   0.702  10.340   5.011
   658G11  C07W45106   0.360  10.391   5.126
   658G11  C08345107   0.504  10.427   5.366
   658G11  C07J45108   0.771  10.394   5.128
   658G11  C06O45109   0.911  10.476   5.361
   658G11  C06M45110   0.706  10.477   5.483
   668G11  C07145111   8.779  10.655   9.099
   668G11  C07L45112   8.679  10.644   9.201
   668G11  C07M45113   8.597  10.537   9.201
   668G11  C07Y45114   8.491  10.527   9.297
   668G11  C08145115   8.467  10.632   9.391
   668G11  C08245116   8.356  10.619   9.482
   668G11  C0DI45117   8.309  10.713   9.592
   668G11  C0DH45118   8.338  10.846   9.624
   668G11  C0DG45119   8.271  10.881   9.745
   668G11  C0E945120   8.219  11.006   9.798
   668G11  C0E845121   8.099  10.954   9.877
   668G11  C0E745122   8.034  11.026   9.984
   668G11  C0EB45123   8.070  11.165  10.011
   668G11  C0EF45124   8.031  11.244  10.131
   668G11  C0EE45125   8.014  11.200  10.265
   668G11  C0FD45126   8.087  11.256  10.374
   668G11  C0FE45127   8.179  11.367  10.367
   668G11  H01B45128   8.200  11.424  10.278
   668G11  C0FF45129   8.253  11.415  10.469
   668G11  H01A45130   8.320  11.498  10.456
   668G11  C0FG45131   8.248  11.343  10.590
   668G11  H01845132   8.316  11.362  10.672
   668G11  C0FH45133   8.162  11.236  10.607
   668G11  C0FI45134   8.163  11.155  10.726
   668G11  H01945135   8.240  11.170  10.801
   668G11  O00K45136   8.068  11.057  10.749
   668G11  C0FL45137   7.974  11.035  10.651
   668G11  C0FK45138   7.983  11.099  10.523
   668G11  C0FM45139   7.903  11.050  10.418
   668G11  C0FN45140   7.798  10.959  10.446
   668G11  C0FP45141   7.785  10.905  10.579
   668G11  C0GO45142   7.690  10.813  10.613
   668G11  C0GN45143   7.679  10.742  10.732
   668G11  C0GR45144   7.774  10.779  10.831
   668G11  C0GS45145   7.772  10.710  10.955
   668G11  H01Q45146   7.841  10.738  11.033
   668G11  C0GT45147   7.681  10.608  10.973
   668G11  H01O45148   7.683  10.554  11.067
   668G11  C0GU45149   7.586  10.572  10.871
   668G11  H01P45150   7.519  10.489  10.886
   668G11  O00L45151   7.869  10.880  10.806
   668G11  C0GM45152   7.589  10.631  10.741
   668G11  C0GL45153   7.508  10.598  10.630
   668G11  H01R45154   7.452  10.506  10.639
   668G11  C0GK45155   7.511  10.681  10.513
   668G11  C0GP45156   7.453  10.674  10.379
   668G11  C0E245157   7.486  10.797  10.311
   668G11  C0E145158   7.496  10.761  10.173
   668G11  C0DU45159   7.615  10.781  10.090
   668G11  C0DT45160   7.715  10.873  10.106
   668G11  C0E445161   7.749  10.944  10.219
   668G11  C0E545162   7.867  11.005  10.187
   668G11  C0DS45163   7.823  10.868  10.016
   668G11  C0DR45164   7.832  10.768   9.918
   668G11  C0DD45165   7.939  10.739   9.835
   668G11  C0DC45166   7.907  10.603   9.780
   668G11  C0DP45167   7.777  10.554   9.822
   668G11  C0DA45168   7.705  10.424   9.789
   668G11  C0D945169   7.735  10.323   9.687
   668G11  C0CR45170   7.645  10.215   9.661
   668G11  C0C045171   7.529  10.196   9.736
   668G11  C0BZ45172   7.443  10.086   9.734
   668G11  C0C145173   7.324  10.078   9.807
   668G11  C0C745174   7.229   9.979   9.788
   668G11  C0C645175   7.113   9.973   9.866
   668G11  C0C945176   7.024   9.867   9.843
   668G11  C0B845177   6.905   9.860   9.917
   668G11  C0B745178   6.804   9.763   9.892
   668G11  C0B645179   6.684   9.732   9.955
   668G11  C0B545180   6.669   9.737  10.095
   668G11  H00Z45181   6.725   9.784  10.175
   668G11  C0B445182   6.576   9.637  10.127
   668G11  H01045183   6.572   9.576  10.216
   668G11  C0B345184   6.519   9.571  10.010
   668G11  C0AP45185   6.485   9.437   9.955
   668G11  C0AQ45186   6.553   9.441   9.831
   668G11  C0AR45187   6.602   9.323   9.772
   668G11  C0AS45188   6.705   9.343   9.690
   668G11  C0AT45189   6.782   9.456   9.685
   668G11  C0BA45190   6.744   9.568   9.753
   668G11  C0AU45191   6.911   9.460   9.632
   668G11  C0BE45192   6.993   9.570   9.639
   668G11  C0BI45193   7.121   9.562   9.586
   668G11  C0BJ45194   7.161   9.445   9.518
   668G11  C0BK45195   7.283   9.440   9.453
   668G11  C0BW45196   7.362   9.555   9.452
   668G11  C0BV45197   7.333   9.668   9.530
   668G11  C0BU45198   7.418   9.774   9.542
   668G11  C0BX45199   7.384   9.877   9.630
   668G11  C0BT45200   7.535   9.779   9.467
   668G11  C0CD45201   7.617   9.890   9.474
   668G11  C0CB45202   7.594   9.988   9.569
   668G11  C0CE45203   7.729   9.892   9.390
   668G11  C0CK45204   7.754   9.790   9.300
   668G11  C0BS45205   7.669   9.682   9.291
   668G11  C0CJ45206   7.690   9.581   9.191
   668G11  C0BP45207   7.607   9.469   9.196
   668G11  C0CI45208   7.614   9.369   9.092
   668G11  C0CH45209   7.560   9.240   9.123
   668G11  H01245210   7.599   9.159   9.063
   668G11  C0BN45211   7.467   9.220   9.229
   668G11  C0CG45212   7.398   9.097   9.254
   668G11  C0CF45213   7.453   8.979   9.189
   668G11  H01345214   7.546   8.977   9.133
   668G11  O00G45215   7.392   8.859   9.213
   668G11  C0AA45216   7.270   8.856   9.283
   668G11  C0A945217   7.209   8.735   9.310
   668G11  H00U45218   7.243   8.645   9.261
   668G11  C0A845219   7.104   8.726   9.399
   668G11  H00V45220   7.062   8.626   9.406
   668G11  C0A745221   7.042   8.833   9.462
   668G11  C0A645222   7.100   8.964   9.429
   668G11  C0A545223   7.054   9.087   9.479
   668G11  C0A445224   6.927   9.101   9.541
   668G11  C0A345225   6.821   9.015   9.595
   668G11  C0A245226   6.842   8.871   9.619
   668G11  C0A145227   6.741   8.796   9.683
   668G11  C0A045228   6.612   8.828   9.757
   668G11  C09Z45229   6.541   8.712   9.790
   668G11  C09Y45230   6.422   8.724   9.866
   668G11  H00Y45231   6.369   8.636   9.901
   668G11  C09X45232   6.377   8.847   9.916
   668G11  C09W45233   6.272   8.837  10.010
   668G11  H00R45234   6.215   8.746  10.023
   668G11  C0AX45235   6.233   8.949  10.073
   668G11  H00S45236   6.139   8.952  10.127
   668G11  C0AW45237   6.304   9.068  10.056
   668G11  H00T45238   6.270   9.156  10.108
   668G11  C0AN45239   6.409   9.077   9.959
   668G11  C0AO45240   6.476   9.194   9.924
   668G11  C0AM45241   6.448   8.961   9.887
   668G11  C0B245242   6.582   8.576   9.766
   668G11  O00D45243   6.510   8.482   9.795
   668G11  C0B145244   6.701   8.549   9.689
   668G11  H00W45245   6.729   8.446   9.675
   668G11  C0AL45246   6.563   8.954   9.801
   668G11  C0AK45247   6.618   9.078   9.762
   668G11  C0B045248   6.779   8.661   9.654
   668G11  C0AZ45249   6.902   8.659   9.585
   668G11  H00X45250   6.950   8.565   9.565
   668G11  C0AJ45251   6.721   9.093   9.668
   668G11  C0AH45252   6.884   9.229   9.574
   668G11  C0AE45253   7.125   9.209   9.467
   668G11  C0AD45254   7.251   9.208   9.403
   668G11  C0AY45255   6.938   8.796   9.548
   668G11  C0AB45256   7.216   8.971   9.353
   668G11  C0AC45257   7.289   9.088   9.343
   668G11  C0BM45258   7.433   9.336   9.307
   668G11  C0CM45259   7.682   9.407   8.974
   668G11  C09M45260   7.796   9.485   8.990
   668G11  C09845261   7.906   9.454   8.899
   668G11  C08R45262   8.034   9.519   8.868
   668G11  C08Q45263   8.118   9.459   8.774
   668G11  C08P45264   8.219   9.507   8.673
   668G11  C08Y45265   8.225   9.430   8.557
   668G11  C09745266   8.114   9.354   8.521
   668G11  C09645267   8.085   9.368   8.386
   668G11  C09045268   8.205   9.409   8.323
   668G11  C09545269   8.219   9.459   8.190
   668G11  C09445270   8.349   9.492   8.134
   668G11  C08J45271   8.463   9.549   8.193
   668G11  C08I45272   8.521   9.649   8.104
   668G11  C08H45273   8.604   9.743   8.184
   668G11  C08G45274   8.548   9.726   8.323
   668G11  C08F45275   8.568   9.790   8.458
   668G11  C08E45276   8.674   9.880   8.480
   668G11  C05945277   8.798   9.885   8.402
   668G11  C05845278   8.905   9.962   8.449
   668G11  C05745279   9.031   9.985   8.385
   668G11  C05645280   9.040   9.917   8.260
   668G11  C05545281   8.950   9.831   8.212
   668G11  C05445282   8.956   9.820   8.072
   668G11  C05345283   9.059   9.915   8.029
   668G11  C05245284   9.093   9.959   7.896
   668G11  C05145285   9.012   9.923   7.781
   668G11  C05U45286   8.885   9.846   7.786
   668G11  C05T45287   8.801   9.798   7.891
   668G11  C06K45288   8.701   9.718   7.821
   668G11  H00J45289   8.634   9.646   7.863
   668G11  C06L45290   8.722   9.726   7.680
   668G11  H00I45291   8.672   9.661   7.609
   668G11  C05V45292   8.831   9.813   7.659
   668G11  C06J45293   8.883   9.842   7.538
   668G11  H00K45294   8.840   9.801   7.448
   668G11  C05X45295   8.990   9.929   7.535
   668G11  C06I45296   9.050   9.965   7.408
   668G11  H00L45297   9.012   9.931   7.312
   668G11  C04Z45298   9.161  10.048   7.395
   668G11  C06H45299   9.205  10.093   7.269
   668G11  H00H45300   9.159  10.051   7.181
   668G11  C04Y45301   9.320  10.184   7.266
   668G11  C06G45302   9.353  10.240   7.137
   668G11  O00945303   9.283  10.220   7.043
   668G11  O00845304   9.467  10.320   7.128
   668G11  C04P45305   9.529  10.365   7.240
   668G11  C04J45306   9.640  10.458   7.242
   668G11  C04Q45307   9.711  10.510   7.134
   668G11  H00E45308   9.691  10.461   7.040
   668G11  C04M45309   9.811  10.611   7.142
   668G11  C04R45310   9.899  10.656   7.034
   668G11  H00F45311   9.897  10.618   6.933
   668G11  C04S45312   9.992  10.748   7.061
   668G11  H00G45313  10.061  10.775   6.982
   668G11  O00745314  10.013  10.803   7.183
   668G11  C03V45315   9.947  10.750   7.288
   668G11  C03U45316   9.979  10.805   7.414
   668G11  O00645317  10.072  10.904   7.423
   668G11  C03F45318  10.091  10.966   7.546
   668G11  C03E45319  10.013  10.936   7.663
   668G11  C03D45320   9.923  10.822   7.655
   668G11  C03C45321   9.843  10.784   7.759
   668G11  C03B45322   9.856  10.873   7.873
   668G11  C03A45323   9.775  10.845   7.987
   668G11  C03945324   9.705  10.725   8.000
   668G11  C03845325   9.656  10.728   8.137
   668G11  C03745326   9.724  10.839   8.192
   668G11  C03645327   9.720  10.861   8.324
   668G11  C02R45328   9.777  10.961   8.396
   668G11  C03545329   9.723  10.937   8.529
   668G11  C03R45330   9.649  10.825   8.536
   668G11  C03S45331   9.538  10.806   8.619
   668G11  C04945332   9.445  10.708   8.584
   668G11  C04845333   9.469  10.643   8.464
   668G11  C03P45334   9.560  10.683   8.362
   668G11  C04745335   9.395  10.525   8.460
   668G11  C04645336   9.409  10.422   8.370
   668G11  C04545337   9.478  10.416   8.248
   668G11  C03T45338   9.553  10.517   8.175
   668G11  C04445339   9.585  10.463   8.047
   668G11  C04345340   9.545  10.326   8.044
   668G11  C04245341   9.506  10.295   7.912
   668G11  C04145342   9.566  10.401   7.838
   668G11  C04045343   9.564  10.418   7.695
   668G11  C03Z45344   9.646  10.502   7.615
   668G11  C04H45345   9.627  10.460   7.483
   668G11  C04G45346   9.539  10.357   7.486
   668G11  C03N45347   9.746  10.606   7.634
   668G11  C03Y45348   9.811  10.654   7.514
   668G11  C03X45349   9.781  10.606   7.386
   668G11  C04F45350   9.488  10.326   7.609
   668G11  C04E45351   9.387  10.233   7.626
   668G11  C04O45352   9.335  10.180   7.507
   668G11  C04D45353   9.339  10.183   7.750
   668G11  C04V45354   9.233  10.095   7.748
   668G11  C04W45355   9.165  10.046   7.630
   668G11  C04C45356   9.386  10.205   7.883
   668G11  C04L45357   9.293  10.130   7.965
   668G11  C04U45358   9.318  10.109   8.109
   668G11  C05Q45359   9.224  10.048   8.187
   668G11  C05P45360   9.218  10.106   8.310
   668G11  C04T45361   9.300  10.218   8.311
   668G11  C04B45362   9.368  10.217   8.187
   668G11  C03M45363   9.629  10.512   7.921
   668G11  C04A45364   9.461  10.311   8.156
   668G11  C05H45365   9.319  10.322   8.401
   668G11  C05G45366   9.254  10.355   8.525
   668G11  C05F45367   9.155  10.281   8.586
   668G11  C05E45368   9.059  10.338   8.671
   668G11  C05L45369   9.037  10.466   8.742
   668G11  C05K45370   9.137  10.570   8.742
   668G11  C05J45371   9.250  10.580   8.661
   668G11  C06645372   9.113  10.675   8.834
   668G11  C06545373   8.996  10.667   8.921
   668G11  C06445374   8.901  10.568   8.914
   668G11  C06N45375   8.977  10.771   9.017
   668G11  C06945376   9.065  10.879   9.024
   668G11  C06P45377   9.036  10.987   9.118
   668G11  C06R45378   9.118  11.097   9.123
   668G11  C06B45379   9.229  11.108   9.041
   668G11  C06S45380   9.313  11.218   9.042
   668G11  C02G45381   9.420  11.219   8.959
   668G11  C02F45382   9.490  11.340   8.949
   668G11  C02745383   9.452  11.450   9.027
   668G11  C02645384   9.509  11.571   8.999
   668G11  C00E45385   9.468  11.687   9.071
   668G11  C00D45386   9.533  11.805   9.049
   668G11  C00C45387   9.486  11.914   9.114
   668G11  C00B45388   9.383  11.916   9.199
   668G11  C01545389   9.317  11.792   9.226
   668G11  C07F45390   9.206  11.792   9.307
   668G11  C07E45391   9.142  11.668   9.329
   668G11  C06W45392   9.189  11.552   9.268
   668G11  C06V45393   9.296  11.555   9.177
   668G11  C06X45394   9.127  11.430   9.283
   668G11  C07B45395   9.013  11.425   9.363
   668G11  C07C45396   8.966  11.542   9.425
   668G11  C0FU45397   8.844  11.537   9.493
   668G11  C0F745398   8.788  11.650   9.547
   668G11  C0F645399   8.667  11.644   9.609
   668G11  C0F845400   8.605  11.761   9.654
   668G11  C0F945401   8.481  11.754   9.720
   668G11  C0FA45402   8.419  11.868   9.751
   668G11  C0FZ45403   8.475  11.993   9.714
   668G11  C0G045404   8.410  12.111   9.740
   668G11  C0GD45405   8.291  12.114   9.816
   668G11  C0FC45406   8.251  11.995   9.875
   668G11  C0GH45407   8.137  11.993   9.960
   668G11  C0EY45408   8.085  11.873  10.008
   668G11  C0EX45409   7.986  11.866  10.099
   668G11  C0EW45410   7.941  11.736  10.145
   668G11  C0FR45411   7.829  11.728  10.232
   668G11  H01D45412   7.788  11.634  10.266
   668G11  C0FS45413   7.756  11.842  10.263
   668G11  H01C45414   7.664  11.837  10.321
   668G11  C0GJ45415   7.802  11.963  10.207
   668G11  H01N45416   7.734  12.044  10.227
   668G11  C0EV45417   8.004  11.625  10.100
   668G11  C0FT45418   7.978  11.495  10.159
   668G11  H01E45419   7.910  11.482  10.241
   668G11  C0EU45420   8.099  11.630   9.995
   668G11  C0ET45421   8.151  11.515   9.938
   668G11  C0EI45422   8.252  11.507   9.850
   668G11  C0F145423   8.314  11.631   9.822
   668G11  C0F045424   8.253  11.752   9.868
   668G11  C0EH45425   8.302  11.383   9.802
   668G11  C0EG45426   8.238  11.256   9.833
   668G11  C0EJ45427   8.421  11.387   9.725
   668G11  C0F345428   8.481  11.510   9.699
   668G11  C0EK45429   8.477  11.271   9.672
   668G11  C0EL45430   8.402  11.144   9.680
   668G11  C0EM45431   8.468  11.045   9.597
   668G11  C0EN45432   8.591  11.065   9.541
   668G11  C07I45433   8.630  10.951   9.469
   668G11  C07445434   8.734  10.958   9.379
   668G11  C07345435   8.751  10.855   9.294
   668G11  C07245436   8.851  10.861   9.204
   668G11  C07545437   8.803  11.075   9.378
   668G11  C07645438   8.771  11.180   9.459
   668G11  C07845439   8.834  11.300   9.452
   668G11  C07G45440   8.911  11.081   9.292
   668G11  C07045441   8.985  11.198   9.297
   668G11  C07Z45442   8.535  10.851   9.476
   668G11  C07745443   8.657  11.180   9.539
   668G11  C0EO45444   8.599  11.281   9.605
   668G11  C0F445445   8.665  11.406   9.584
   668G11  C0EQ45446   8.107  11.394   9.991
   668G11  C0FQ45447   7.913  11.981  10.129
   668G11  C0GI45448   7.952  12.099  10.066
   668G11  H01L45449   7.895  12.190  10.077
   668G11  C0EZ45450   8.146  11.756   9.959
   668G11  C0GG45451   8.065  12.109   9.987
   668G11  C0GF45452   8.107  12.226   9.922
   668G11  H01M45453   8.054  12.317   9.944
   668G11  C0GE45454   8.217  12.228   9.839
   668G11  H01K45455   8.239  12.328   9.805
   668G11  O00J45456   8.455  12.234   9.697
   668G11  C0GA45457   8.578  12.234   9.640
   668G11  C0G945458   8.626  12.359   9.604
   668G11  H01H45459   8.570  12.450   9.621
   668G11  C0G845460   8.750  12.375   9.545
   668G11  C0G745461   8.802  12.501   9.503
   668G11  H01I45462   8.752  12.592   9.532
   668G11  O00I45463   8.907  12.502   9.417
   668G11  C0G645464   8.985  12.391   9.407
   668G11  H01J45465   9.074  12.405   9.348
   668G11  C02D45466   8.953  12.264   9.457
   668G11  C02C45467   9.023  12.146   9.434
   668G11  C01745468   9.152  12.144   9.367
   668G11  C01645469   9.216  12.024   9.331
   668G11  O00145470   9.232  12.259   9.360
   668G11  C01845471   9.324  12.271   9.260
   668G11  C00945472   9.393  12.158   9.215
   668G11  C00845473   9.513  12.155   9.142
   668G11  C00745474   9.597  12.256   9.071
   668G11  C00645475   9.567  12.389   9.065
   668G11  C00545476   9.643  12.480   8.985
   668G11  C00445477   9.757  12.459   8.893
   668G11  C00345478   9.814  12.334   8.838
   668G11  C00245479   9.913  12.334   8.734
   668G11  C00P45480   9.965  12.218   8.666
   668G11  C00O45481  10.054  12.231   8.560
   668G11  C00N45482  10.080  12.123   8.479
   668G11  C01045483  10.158  12.136   8.362
   668G11  C01145484  10.183  12.028   8.275
   668G11  C01Q45485  10.274  12.041   8.168
   668G11  C01U45486  10.335  12.163   8.139
   668G11  C01245487  10.305  12.267   8.225
   668G11  H00045488  10.352  12.361   8.200
   668G11  C01V45489  10.429  12.163   8.024
   668G11  H00745490  10.490  12.251   8.014
   668G11  O00545491  10.434  12.058   7.936
   668G11  C01W45492  10.362  11.951   7.959
   668G11  C03145493  10.369  11.857   7.854
   668G11  C03245494  10.283  11.744   7.868
   668G11  H00A45495  10.276  11.668   7.792
   668G11  C03345496  10.214  11.725   7.989
   668G11  H00B45497  10.161  11.631   7.992
   668G11  C01O45498  10.216  11.814   8.094
   668G11  C01N45499  10.148  11.795   8.219
   668G11  C01M45500  10.101  11.656   8.253
   668G11  C01L45501  10.079  11.507   8.208
   668G11  C01K45502  10.005  11.452   8.317
   668G11  C01Y45503   9.949  11.326   8.328
   668G11  C02I45504   9.956  11.244   8.216
   668G11  C02N45505   9.884  11.124   8.226
   668G11  C02M45506   9.866  11.046   8.114
   668G11  C02L45507   9.938  11.072   7.997
   668G11  C02K45508  10.027  11.185   7.999
   668G11  C02U45509  10.125  11.202   7.897
   668G11  C02V45510  10.116  11.116   7.788
   668G11  C03H45511  10.191  11.151   7.672
   668G11  H00C45512  10.254  11.239   7.669
   668G11  C02W45513  10.225  11.290   7.913
   668G11  C02X45514  10.210  11.389   8.009
   668G11  C02Y45515  10.329  11.460   8.005
   668G11  H00845516  10.363  11.543   8.065
   668G11  C02Z45517  10.420  11.398   7.898
   668G11  O00445518  10.535  11.428   7.864
   668G11  O00345519  10.347  11.293   7.854
   668G11  C02J45520  10.026  11.281   8.102
   668G11  C01Z45521   9.882  11.305   8.450
   668G11  C02045522   9.867  11.399   8.553
   668G11  C01I45523   9.931  11.518   8.544
   668G11  C01H45524   9.902  11.627   8.617
   668G11  C00K45525   9.941  11.752   8.580
   668G11  C01S45526  10.012  11.773   8.463
   668G11  C01445527  10.052  11.897   8.423
   668G11  C00J45528   9.911  11.859   8.656
   668G11  C00I45529   9.831  11.848   8.771
   668G11  C00H45530   9.776  11.718   8.798
   668G11  C00G45531   9.675  11.705   8.891
   668G11  C00S45532   9.797  11.958   8.844
   668G11  C00T45533   9.704  11.936   8.940
   668G11  C00U45534   9.657  12.046   9.004
   668G11  C00R45535   9.830  12.087   8.809
   668G11  C00L45536   9.955  11.983   8.618
   668G11  C02845537   9.812  11.616   8.717
   668G11  C02345538   9.753  11.491   8.742
   668G11  C02445539   9.656  11.471   8.838
   668G11  C02145540   9.784  11.381   8.659
   668G11  C02245541   9.727  11.257   8.678
   668G11  C02H45542   9.639  11.241   8.785
   668G11  C03045543   9.563  11.124   8.798
   668G11  C03445544   9.600  11.020   8.716
   668G11  C02P45545   9.747  11.159   8.581
   668G11  C02B45546   9.826  11.180   8.467
   668G11  C01J45547  10.003  11.541   8.424
   668G11  C01X45548  10.106  11.408   8.104
   668G11  C01T45549  10.037  11.666   8.379
   668G11  H00945550  10.434  11.878   7.770
   668G11  C01P45551  10.284  11.934   8.077
   668G11  C01R45552  10.125  11.906   8.306
   668G11  C00Z45553  10.216  12.260   8.329
   668G11  O00045554  10.186  12.363   8.413
   668G11  C00M45555  10.025  11.998   8.506
   668G11  C00Y45556  10.105  12.356   8.523
   668G11  C01345557  10.054  12.467   8.588
   668G11  H00145558  10.089  12.567   8.568
   668G11  C00Q45559   9.914  12.096   8.697
   668G11  C00145560   9.959  12.459   8.687
   668G11  C00045561   9.919  12.578   8.750
   668G11  H00645562   9.965  12.669   8.715
   668G11  C00W45563   9.779  12.206   8.875
   668G11  C01G45564   9.824  12.573   8.861
   668G11  H00545565   9.805  12.668   8.908
   668G11  C01C45566   9.579  12.603   9.014
   668G11  H00245567   9.613  12.701   8.982
   668G11  C01B45568   9.466  12.588   9.099
   668G11  C01D45569   9.379  12.681   9.149
   668G11  H00345570   9.388  12.781   9.109
   668G11  C01E45571   9.292  12.636   9.242
   668G11  H00445572   9.221  12.706   9.282
   668G11  O00245573   9.277  12.504   9.287
   668G11  C01A45574   9.459  12.452   9.139
   668G11  C00V45575   9.683  12.182   8.981
   668G11  C01945576   9.354  12.407   9.227
   668G11  C02E45577   8.970  12.021   9.467
   668G11  C0FX45578   8.847  12.013   9.528
   668G11  C0FW45579   8.791  11.891   9.566
   668G11  C0GB45580   8.776  12.133   9.554
   668G11  C0G345581   9.037  11.902   9.434
   668G11  C07H45582   8.970  11.773   9.455
   668G11  C0GC45583   8.825  12.258   9.517
   668G11  C0G245584   8.653  12.122   9.616
   668G11  C0G145585   8.593  11.999   9.645
   668G11  C0FB45586   8.306  11.875   9.828
   668G11  C0F245587   8.427  11.632   9.746
   668G11  C0FY45588   8.659  11.883   9.622
   668G11  C0F545589   8.600  11.519   9.632
   668G11  C0FV45590   8.850  11.769   9.526
   668G11  C07945591   8.779  11.416   9.507
   668G11  C07A45592   8.947  11.304   9.374
   668G11  C06Y45593   9.170  11.319   9.210
   668G11  C07D45594   9.030  11.662   9.411
   668G11  C01F45595   9.151  11.905   9.357
   668G11  C00A45596   9.333  12.035   9.254
   668G11  C00X45597   9.553  12.036   9.091
   668G11  C00F45598   9.638  11.818   8.958
   668G11  C02945599   9.360  11.676   9.158
   668G11  C02545600   9.611  11.581   8.905
   668G11  C06U45601   9.341  11.446   9.109
   668G11  C02A45602   9.599  11.345   8.860
   668G11  C05Y45603   9.460  11.111   8.886
   668G11  C05Z45604   9.380  10.999   8.878
   668G11  C06045605   9.408  10.893   8.788
   668G11  C06245606   9.316  10.787   8.771
   668G11  C06T45607   9.275  11.327   9.128
   668G11  C06A45608   9.260  10.998   8.956
   668G11  C06Z45609   9.092  11.204   9.209
   668G11  C06Q45610   8.931  10.976   9.202
   668G11  C06845611   9.174  10.886   8.940
   668G11  C06745612   9.201  10.782   8.852
   668G11  C06345613   8.921  10.464   8.826
   668G11  C06C45614   8.826  10.364   8.821
   668G11  C06D45615   8.840  10.254   8.739
   668G11  C06E45616   8.750  10.150   8.721
   668G11  C07Q45617   8.645  10.144   8.801
   668G11  C07P45618   8.637  10.239   8.905
   668G11  C07T45619   8.538  10.231   9.001
   668G11  C07U45620   8.519  10.333   9.097
   668G11  C07V45621   8.416  10.327   9.187
   668G11  C08445622   8.326  10.225   9.178
   668G11  C08C45623   8.342  10.127   9.079
   668G11  C08B45624   8.254  10.031   9.062
   668G11  C08A45625   8.260   9.944   8.955
   668G11  C08945626   8.361   9.939   8.865
   668G11  C08845627   8.363   9.840   8.766
   668G11  C08745628   8.464   9.850   8.670
   668G11  C08645629   8.562   9.949   8.687
   668G11  C08X45630   8.274   9.731   8.763
   668G11  C08T45631   8.183   9.722   8.876
   668G11  C08D45632   8.458  10.037   8.882
   668G11  C08U45633   8.175   9.835   8.956
   668G11  C08V45634   8.070   9.824   9.048
   668G11  C0CY45635   8.049   9.917   9.145
   668G11  C0CX45636   7.940   9.902   9.228
   668G11  C0CW45637   7.922  10.001   9.324
   668G11  C0CV45638   8.020  10.108   9.341
   668G11  C0D445639   8.128  10.109   9.253
   668G11  C0CU45640   7.996  10.208   9.432
   668G11  C0CT45641   7.880  10.210   9.509
   668G11  C0CS45642   7.783  10.109   9.492
   668G11  C0D645643   8.093  10.301   9.439
   668G11  C0EC45644   8.210  10.302   9.365
   668G11  C07X45645   8.300  10.409   9.378
   668G11  C0DL45646   8.069  10.397   9.539
   668G11  C0DK45647   8.164  10.491   9.557
   668G11  C0DN45648   8.119  10.572   9.653
   668G11  C0D845649   7.960  10.410   9.626
   668G11  C08W45650   7.995   9.708   9.028
   668G11  C0CQ45651   7.879   9.691   9.118
   668G11  C09345652   8.140  10.019   9.151
   668G11  C09245653   8.222  10.214   9.263
   668G11  C08545654   8.448  10.128   8.990
   668G11  C07S45655   8.556  10.040   8.789
   668G11  C06F45656   8.767  10.049   8.623
   668G11  C07O45657   8.719  10.353   8.909
   668G11  C07N45658   8.703  10.450   9.002
   668G11  C05D45659   8.954  10.248   8.667
   668G11  C05C45660   8.976  10.144   8.586
   668G11  C05N45661   9.097  10.161   8.528
   668G11  C05M45662   9.303  10.485   8.559
   668G11  C05I45663   9.334  10.690   8.670
   668G11  C06145664   9.522  10.904   8.714
   668G11  C02Q45665   9.699  11.040   8.617
   668G11  C02O45666   9.832  11.090   8.359
   668G11  C03Q45667   9.643  10.785   8.408
   668G11  C03O45668   9.582  10.642   8.227
   668G11  C03L45669   9.696  10.632   7.887
   668G11  C02S45670   9.788  10.920   8.107
   668G11  C02T45671   9.939  10.987   7.883
   668G11  C03K45672   9.758  10.669   7.761
   668G11  C03I45673  10.026  11.010   7.778
   668G11  C03G45674  10.186  11.070   7.560
   668G11  H00D45675  10.254  11.090   7.478
   668G11  C03J45676   9.906  10.755   7.529
   668G11  C03W45677   9.845  10.655   7.274
   668G11  C04I45678   9.684  10.510   7.367
   668G11  C04K45679   9.484  10.315   7.365
   668G11  C04N45680   9.380  10.224   7.380
   668G11  C04X45681   9.220  10.093   7.511
   668G11  C05045682   9.056   9.966   7.652
   668G11  C05W45683   9.200  10.052   7.879
   668G11  C05S45684   8.824   9.803   8.030
   668G11  C05R45685   9.119   9.962   8.155
   668G11  C05O45686   9.126  10.084   8.414
   668G11  C05B45687   8.881  10.045   8.547
   668G11  C05A45688   8.820   9.831   8.267
   668G11  C07R45689   8.669   9.951   8.599
   668G11  C08N45690   8.469   9.769   8.560
   668G11  C08M45691   8.376   9.660   8.555
   668G11  C08L45692   8.367   9.582   8.434
   668G11  C09145693   8.741   9.792   8.154
   668G11  C09K45694   8.421   9.667   8.000
   668G11  H00M45695   8.424   9.757   7.940
   668G11  C08K45696   8.458   9.615   8.322
   668G11  C09J45697   8.327   9.554   8.003
   668G11  C09I45698   8.185   9.538   7.975
   668G11  C09L45699   8.108   9.576   7.862
   668G11  H00N45700   8.155   9.612   7.771
   668G11  C09Q45701   7.973   9.550   7.868
   668G11  H00O45702   7.917   9.574   7.778
   668G11  O00B45703   7.906   9.500   7.980
   668G11  C09G45704   7.978   9.456   8.087
   668G11  C09F45705   7.905   9.412   8.199
   668G11  O00A45706   7.770   9.431   8.174
   668G11  C09P45707   7.689   9.348   8.242
   668G11  H00P45708   7.628   9.276   8.189
   668G11  C09O45709   7.707   9.340   8.384
   668G11  C09D45710   7.841   9.347   8.433
   668G11  C09C45711   7.887   9.343   8.568
   668G11  C09N45712   7.822   9.352   8.694
   668G11  C09T45713   7.682   9.363   8.713
   668G11  C09S45714   7.585   9.335   8.613
   668G11  C0CP45715   7.469   9.315   8.686
   668G11  C0CN45716   7.482   9.326   8.823
   668G11  C0CO45717   7.363   9.333   8.895
   668G11  H01445718   7.367   9.369   8.997
   668G11  C0CZ45719   7.242   9.292   8.829
   668G11  H01545720   7.154   9.292   8.892
   668G11  C0D045721   7.235   9.248   8.696
   668G11  C0G545722   7.127   9.189   8.621
   668G11  H01F45723   7.039   9.151   8.672
   668G11  C0G445724   7.135   9.171   8.487
   668G11  H01G45725   7.053   9.122   8.436
   668G11  O00H45726   7.243   9.206   8.411
   668G11  C0D245727   7.354   9.257   8.478
   668G11  C09V45728   7.472   9.278   8.404
   668G11  H00Q45729   7.459   9.249   8.301
   668G11  C0D145730   7.352   9.274   8.618
   668G11  C09R45731   7.594   9.318   8.473
   668G11  C09H45732   8.119   9.478   8.087
   668G11  C09E45733   7.950   9.369   8.330
   668G11  C09B45734   8.020   9.327   8.608
   668G11  C08Z45735   8.264   9.479   8.434
   668G11  C08O45736   8.290   9.629   8.667
   668G11  C09A45737   8.046   9.342   8.743
   668G11  C08S45738   8.071   9.641   8.927
   668G11  C09945739   7.913   9.351   8.799
   668G11  C09U45740   7.622   9.367   8.847
   668G11  C0BO45741   7.504   9.456   9.291
   668G11  C0CL45742   7.794   9.587   9.097
   668G11  C0D345743   7.856   9.794   9.216
   668G11  C0D545744   7.807  10.004   9.397
   668G11  C0BR45745   7.561   9.674   9.374
   668G11  C0BQ45746   7.474   9.564   9.371
   668G11  C0BL45747   7.325   9.326   9.387
   668G11  C0AF45748   7.085   9.330   9.520
   668G11  C0BH45749   7.207   9.667   9.599
   668G11  C0BG45750   7.171   9.771   9.683
   668G11  C0BD45751   6.952   9.676   9.718
   668G11  C0AG45752   6.962   9.347   9.574
   668G11  C0AI45753   6.761   9.227   9.635
   668G11  C0AV45754   6.568   9.195   9.819
   668G11  C0BB45755   6.618   9.569   9.809
   668G11  O00C45756   6.446   9.309   9.999
   668G11  C0BC45757   6.576   9.657   9.905
   668G11  C0B945758   6.828   9.677   9.787
   668G11  O00E45759   6.889   9.948  10.021
   668G11  C0CA45760   6.967  10.054  10.051
   668G11  O00F45761   6.946  10.117  10.158
   668G11  C0BF45762   7.049   9.770   9.747
   668G11  C0C545763   7.085  10.064   9.963
   668G11  C0C445764   7.182  10.176   9.982
   668G11  H01145765   7.159  10.255  10.051
   668G11  C0C845766   7.259   9.875   9.700
   668G11  C0C245767   7.297  10.173   9.903
   668G11  C0C345768   7.403  10.265   9.920
   668G11  C0DY45769   7.405  10.365  10.019
   668G11  H01645770   7.332  10.397  10.092
   668G11  C0DX45771   7.529  10.442   9.992
   668G11  C0DW45772   7.538  10.574  10.046
   668G11  C0BY45773   7.477   9.979   9.648
   668G11  C0DB45774   7.510  10.281   9.841
   668G11  C0CC45775   7.674  10.108   9.574
   668G11  C0D745776   7.854  10.314   9.609
   668G11  C0DZ45777   7.595  10.388   9.873
   668G11  C0DM45778   7.990  10.528   9.698
   668G11  C0DQ45779   7.738  10.658   9.917
   668G11  C0DV45780   7.630  10.672  10.004
   668G11  C0E045781   7.458  10.624  10.158
   668G11  C0FO45782   7.591  10.857  10.390
   668G11  C0E345783   7.435  10.560  10.289
   668G11  H01745784   7.454  10.457  10.316
   668G11  C0GV45785   7.594  10.791  10.511
   668G11  C0ES45786   7.707  10.929  10.350
   668G11  C0GQ45787   7.879  10.938  10.681
   668G11  C0FJ45788   8.078  11.197  10.500
   668G11  C0ED45789   7.924  11.099  10.286
   668G11  C0ER45790   8.037  11.388  10.103
   668G11  C0EP45791   8.145  11.270   9.941
   668G11  C0E645792   7.922  10.972  10.057
   668G11  C0DE45793   8.067  10.815   9.840
   668G11  C0EA45794   8.286  11.137   9.771
   668G11  C0DF45795   8.191  10.772   9.782
   668G11  C08045796   8.437  10.912   9.559
   668G11  C0DO45797   8.202  10.679   9.678
   668G11  C0DJ45798   8.277  10.507   9.468
   668G11  C07K45799   8.560  10.738   9.394
   668G11  C07W45800   8.406  10.420   9.285
   668G11  C08345801   8.607  10.438   9.099
   668G11  C07J45802   8.668  10.743   9.301
   668G11  C06O45803   8.870  10.761   9.107
   668G11  C06M45804   8.792  10.559   9.000
   678G11  C07145805   3.775   4.772  12.348
   678G11  C07L45806   3.763   4.914  12.347
   678G11  C07M45807   3.657   4.979  12.410
   678G11  C07Y45808   3.648   5.117  12.412
   678G11  C08145809   3.747   5.197  12.357
   678G11  C08245810   3.737   5.332  12.360
   678G11  C0DI45811   3.829   5.441  12.316
   678G11  C0DH45812   3.948   5.444  12.240
   678G11  C0DG45813   4.006   5.577  12.240
   678G11  C0E945814   4.075   5.655  12.139
   678G11  C0E845815   4.030   5.795  12.162
   678G11  C0E745816   4.099   5.917  12.136
   678G11  C0EB45817   4.228   5.914  12.074
   678G11  C0EF45818   4.317   6.031  12.052
   678G11  C0EE45819   4.354   6.127  12.146
   678G11  C0FD45820   4.490   6.147  12.185
   678G11  C0FE45821   4.603   6.062  12.150
   678G11  H01B45822   4.582   5.974  12.092
   678G11  C0FF45823   4.731   6.091  12.197
   678G11  H01A45824   4.820   6.037  12.168
   678G11  C0FG45825   4.752   6.214  12.262
   678G11  H01845826   4.855   6.245  12.274
   678G11  C0FH45827   4.647   6.300  12.304
   678G11  C0FI45828   4.665   6.425  12.376
   678G11  H01945829   4.764   6.467  12.386
   678G11  O00K45830   4.566   6.493  12.434
   678G11  C0FL45831   4.446   6.461  12.375
   678G11  C0FK45832   4.413   6.347  12.299
   678G11  C0FM45833   4.280   6.326  12.261
   678G11  C0FN45834   4.193   6.434  12.275
   678G11  C0FP45835   4.222   6.546  12.358
   678G11  C0GO45836   4.131   6.637  12.400
   678G11  C0GN45837   4.142   6.721  12.509
   678G11  C0GR45838   4.269   6.715  12.575
   678G11  C0GS45839   4.298   6.792  12.683
   678G11  H01Q45840   4.402   6.796  12.713
   678G11  C0GT45841   4.202   6.883  12.733
   678G11  H01O45842   4.216   6.950  12.816
   678G11  C0GU45843   4.072   6.877  12.675
   678G11  H01P45844   4.000   6.952  12.703
   678G11  O00L45845   4.371   6.640  12.522
   678G11  C0GM45846   4.038   6.797  12.560
   678G11  C0GL45847   3.914   6.788  12.486
   678G11  H01R45848   3.827   6.838  12.527
   678G11  C0GK45849   3.899   6.705  12.375
   678G11  C0GP45850   3.789   6.642  12.308
   678G11  C0E245851   3.843   6.553  12.203
   678G11  C0E145852   3.748   6.444  12.192
   678G11  C0DU45853   3.778   6.300  12.206
   678G11  C0DT45854   3.898   6.233  12.190
   678G11  C0E445855   4.019   6.293  12.195
   678G11  C0E545856   4.106   6.187  12.187
   678G11  C0DS45857   3.910   6.092  12.200
   678G11  C0DR45858   3.797   6.020  12.247
   678G11  C0DD45859   3.783   5.885  12.261
   678G11  C0DC45860   3.659   5.871  12.337
   678G11  C0DP45861   3.584   5.998  12.350
   678G11  C0DA45862   3.450   6.018  12.403
   678G11  C0D945863   3.334   5.928  12.441
   678G11  C0CR45864   3.203   5.979  12.485
   678G11  C0C045865   3.172   6.106  12.477
   678G11  C0BZ45866   3.045   6.167  12.501
   678G11  C0C145867   3.019   6.301  12.475
   678G11  C0C745868   2.890   6.353  12.488
   678G11  C0C645869   2.862   6.487  12.450
   678G11  C0C945870   2.736   6.533  12.450
   678G11  C0B845871   2.711   6.672  12.422
   678G11  C0B745872   2.580   6.725  12.428
   678G11  C0B645873   2.523   6.854  12.393
   678G11  C0B545874   2.560   6.927  12.272
   678G11  H00Z45875   2.647   6.913  12.211
   678G11  C0B445876   2.436   6.996  12.235
   678G11  H01045877   2.414   7.042  12.140
   678G11  C0B345878   2.337   6.983  12.337
   678G11  C0AP45879   2.191   6.951  12.344
   678G11  C0AQ45880   2.182   6.850  12.442
   678G11  C0AR45881   2.083   6.749  12.435
   678G11  C0AS45882   2.116   6.638  12.500
   678G11  C0AT45883   2.245   6.598  12.530
   678G11  C0BA45884   2.348   6.684  12.507
   678G11  C0AU45885   2.266   6.460  12.542
   678G11  C0BE45886   2.395   6.411  12.534
   678G11  C0BI45887   2.418   6.278  12.547
   678G11  C0BJ45888   2.314   6.188  12.568
   678G11  C0BK45889   2.342   6.058  12.592
   678G11  C0BW45890   2.470   6.006  12.587
   678G11  C0BV45891   2.574   6.092  12.564
   678G11  C0BU45892   2.705   6.044  12.564
   678G11  C0BX45893   2.811   6.131  12.536
   678G11  C0BT45894   2.727   5.912  12.587
   678G11  C0CD45895   2.860   5.864  12.577
   678G11  C0CB45896   2.967   5.947  12.544
   678G11  C0CE45897   2.876   5.726  12.593
   678G11  C0CK45898   2.770   5.640  12.631
   678G11  C0BS45899   2.641   5.686  12.636
   678G11  C0CJ45900   2.531   5.600  12.677
   678G11  C0BP45901   2.403   5.653  12.675
   678G11  C0CI45902   2.292   5.571  12.701
   678G11  C0CH45903   2.169   5.624  12.656
   678G11  H01245904   2.097   5.544  12.645
   678G11  C0BN45905   2.148   5.756  12.632
   678G11  C0CG45906   2.018   5.805  12.634
   678G11  C0CF45907   1.901   5.715  12.650
   678G11  H01345908   1.925   5.611  12.665
   678G11  O00G45909   1.767   5.758  12.646
   678G11  C0AA45910   1.749   5.888  12.599
   678G11  C0A945911   1.618   5.922  12.571
   678G11  H00U45912   1.540   5.847  12.574
   678G11  C0A845913   1.597   6.043  12.506
   678G11  H00V45914   1.499   6.051  12.460
   678G11  C0A745915   1.691   6.148  12.493
   678G11  C0A645916   1.827   6.117  12.545
   678G11  C0A545917   1.941   6.198  12.540
   678G11  C0A445918   1.921   6.337  12.512
   678G11  C0A345919   1.833   6.426  12.442
   678G11  C0A245920   1.709   6.386  12.378
   678G11  C0A145921   1.621   6.475  12.324
   678G11  C0A045922   1.627   6.613  12.273
   678G11  C09Z45923   1.510   6.660  12.215
   678G11  C09Y45924   1.514   6.783  12.149
   678G11  H00Y45925   1.430   6.809  12.087
   678G11  C09X45926   1.631   6.864  12.141
   678G11  C09W45927   1.621   6.979  12.063
   678G11  H00R45928   1.541   7.008  11.997
   678G11  C0AX45929   1.730   7.068  12.057
   678G11  H00S45930   1.733   7.161  12.002
   678G11  C0AW45931   1.845   7.027  12.126
   678G11  H00T45932   1.935   7.087  12.125
   678G11  C0AN45933   1.851   6.914  12.208
   678G11  C0AO45934   1.965   6.890  12.286
   678G11  C0AM45935   1.742   6.831  12.215
   678G11  C0B245936   1.389   6.586  12.206
   678G11  O00D45937   1.286   6.631  12.165
   678G11  C0B145938   1.390   6.455  12.253
   678G11  H00W45939   1.301   6.394  12.253
   678G11  C0AL45940   1.740   6.707  12.288
   678G11  C0AK45941   1.858   6.681  12.364
   678G11  C0B045942   1.504   6.405  12.315
   678G11  C0AZ45943   1.513   6.276  12.379
   678G11  H00X45944   1.425   6.213  12.372
   678G11  C0AJ45945   1.894   6.554  12.425
   678G11  C0AH45946   2.035   6.411  12.536
   678G11  C0AE45947   2.069   6.154  12.576
   678G11  C0AD45948   2.099   6.020  12.598
   678G11  C0AY45949   1.645   6.263  12.419
   678G11  C0AB45950   1.853   5.986  12.587
   678G11  C0AC45951   1.987   5.939  12.611
   678G11  C0BM45952   2.253   5.840  12.626
   678G11  C0CM45953   2.308   5.445  12.761
   678G11  C09M45954   2.439   5.390  12.762
   678G11  C09845955   2.452   5.263  12.828
   678G11  C08R45956   2.554   5.159  12.839
   678G11  C08Q45957   2.519   5.042  12.905
   678G11  C08P45958   2.548   4.900  12.909
   678G11  C08Y45959   2.448   4.809  12.960
   678G11  C09745960   2.321   4.854  12.976
   678G11  C09645961   2.221   4.761  12.942
   678G11  C09045962   2.298   4.637  12.945
   678G11  C09545963   2.249   4.514  12.886
   678G11  C09445964   2.327   4.401  12.877
   678G11  C08J45965   2.463   4.377  12.897
   678G11  C08I45966   2.490   4.267  12.812
   678G11  C08H45967   2.630   4.274  12.766
   678G11  C08G45968   2.680   4.411  12.798
   678G11  C08F45969   2.800   4.489  12.781
   678G11  C08E45970   2.923   4.427  12.756
   678G11  C05945971   2.949   4.283  12.766
   678G11  C05845972   3.075   4.235  12.732
   678G11  C05745973   3.109   4.097  12.715
   678G11  C05645974   3.003   4.011  12.744
   678G11  C05545975   2.886   4.040  12.811
   678G11  C05445976   2.790   3.941  12.772
   678G11  C05345977   2.859   3.839  12.696
   678G11  C05245978   2.808   3.734  12.612
   678G11  C05145979   2.669   3.726  12.576
   678G11  C05U45980   2.562   3.815  12.617
   678G11  C05T45981   2.555   3.942  12.679
   678G11  C06K45982   2.418   3.957  12.721
   678G11  H00J45983   2.397   4.024  12.803
   678G11  C06L45984   2.329   3.873  12.655
   678G11  H00I45985   2.222   3.877  12.657
   678G11  C05V45986   2.425   3.784  12.593
   678G11  C06J45987   2.384   3.675  12.528
   678G11  H00K45988   2.281   3.662  12.497
   678G11  C05X45989   2.484   3.589  12.473
   678G11  C06I45990   2.455   3.482  12.387
   678G11  H00L45991   2.351   3.468  12.363
   678G11  C04Z45992   2.547   3.395  12.331
   678G11  C06H45993   2.506   3.305  12.228
   678G11  H00H45994   2.402   3.286  12.209
   678G11  C04Y45995   2.608   3.228  12.164
   678G11  C06G45996   2.567   3.144  12.054
   678G11  O00945997   2.449   3.116  12.024
   678G11  O00845998   2.669   3.074  11.981
   678G11  C04P45999   2.799   3.077  12.022
   678G11  C04J46000   2.902   3.003  11.954
   678G11  C04Q46001   2.888   2.926  11.843
   678G11  H00E46002   2.786   2.899  11.818
   678G11  C04M46003   3.000   2.864  11.777
   678G11  C04R46004   2.991   2.798  11.657
   678G11  H00F46005   2.903   2.804  11.595
   678G11  C04S46006   3.097   2.729  11.611
   678G11  H00G46007   3.071   2.686  11.515
   678G11  O00746008   3.215   2.718  11.673
   678G11  C03V46009   3.238   2.803  11.776
   678G11  C03U46010   3.367   2.827  11.830
   678G11  O00646011   3.464   2.740  11.793
   678G11  C03F46012   3.593   2.798  11.797
   678G11  C03E46013   3.623   2.917  11.867
   678G11  C03D46014   3.514   2.983  11.933
   678G11  C03C46015   3.539   3.099  12.010
   678G11  C03B46016   3.672   3.149  12.000
   678G11  C03A46017   3.698   3.264  12.066
   678G11  C03946018   3.602   3.330  12.149
   678G11  C03846019   3.668   3.457  12.178
   678G11  C03746020   3.788   3.449  12.110
   678G11  C03646021   3.888   3.544  12.124
   678G11  C02R46022   4.000   3.565  12.054
   678G11  C03546023   4.045   3.691  12.101
   678G11  C03R46024   3.946   3.744  12.183
   678G11  C03S46025   3.933   3.883  12.202
   678G11  C04946026   3.822   3.923  12.269
   678G11  C04846027   3.721   3.823  12.291
   678G11  C03P46028   3.722   3.686  12.255
   678G11  C04746029   3.614   3.875  12.363
   678G11  C04646030   3.504   3.807  12.420
   678G11  C04546031   3.469   3.672  12.418
   678G11  C03T46032   3.518   3.566  12.336
   678G11  C04446033   3.422   3.461  12.345
   678G11  C04346034   3.327   3.495  12.450
   678G11  C04246035   3.199   3.446  12.409
   678G11  C04146036   3.242   3.347  12.306
   678G11  C04046037   3.150   3.262  12.239
   678G11  C03Z46038   3.190   3.164  12.140
   678G11  C04H46039   3.061   3.110  12.104
   678G11  C04G46040   2.956   3.169  12.176
   678G11  C03N46041   3.306   3.109  12.072
   678G11  C03Y46042   3.280   3.009  11.973
   678G11  C03X46043   3.148   2.976  11.933
   678G11  C04F46044   3.008   3.268  12.251
   678G11  C04E46045   2.918   3.355  12.320
   678G11  C04O46046   2.779   3.336  12.292
   678G11  C04D46047   2.947   3.459  12.411
   678G11  C04V46048   2.847   3.536  12.469
   678G11  C04W46049   2.708   3.520  12.450
   678G11  C04C46050   3.071   3.494  12.462
   678G11  C04L46051   3.044   3.602  12.554
   678G11  C04U46052   3.137   3.707  12.590
   678G11  C05Q46053   3.112   3.830  12.643
   678G11  C05P46054   3.217   3.914  12.627
   678G11  C04T46055   3.319   3.849  12.560
   678G11  C04B46056   3.272   3.719  12.547
   678G11  C03M46057   3.388   3.350  12.269
   678G11  C04A46058   3.356   3.626  12.485
   678G11  C05H46059   3.437   3.894  12.495
   678G11  C05G46060   3.496   4.024  12.482
   678G11  C05F46061   3.457   4.138  12.560
   678G11  C05E46062   3.500   4.269  12.544
   678G11  C05L46063   3.605   4.333  12.462
   678G11  C05K46064   3.704   4.258  12.396
   678G11  C05J46065   3.713   4.118  12.369
   678G11  C06646066   3.802   4.345  12.335
   678G11  C06546067   3.794   4.488  12.348
   678G11  C06446068   3.686   4.549  12.412
   678G11  C06N46069   3.892   4.567  12.289
   678G11  C06946070   4.000   4.507  12.219
   678G11  C06P46071   4.097   4.587  12.156
   678G11  C06R46072   4.192   4.530  12.075
   678G11  C06B46073   4.200   4.394  12.063
   678G11  C06S46074   4.294   4.339  11.976
   678G11  C02G46075   4.300   4.203  11.962
   678G11  C02F46076   4.399   4.143  11.881
   678G11  C02746077   4.486   4.226  11.808
   678G11  C02646078   4.573   4.171  11.719
   678G11  C00E46079   4.653   4.252  11.636
   678G11  C00D46080   4.739   4.199  11.541
   678G11  C00C46081   4.820   4.278  11.469
   678G11  C00B46082   4.826   4.412  11.483
   678G11  C01546083   4.745   4.467  11.586
   678G11  C07F46084   4.741   4.601  11.608
   678G11  C07E46085   4.648   4.660  11.695
   678G11  C06W46086   4.565   4.576  11.770
   678G11  C06V46087   4.571   4.439  11.749
   678G11  C06X46088   4.478   4.631  11.859
   678G11  C07B46089   4.472   4.772  11.864
   678G11  C07C46090   4.553   4.852  11.790
   678G11  C0FU46091   4.542   4.994  11.796
   678G11  C0F746092   4.619   5.079  11.720
   678G11  C0F646093   4.597   5.216  11.722
   678G11  C0F846094   4.684   5.299  11.649
   678G11  C0F946095   4.664   5.439  11.644
   678G11  C0FA46096   4.741   5.516  11.554
   678G11  C0FZ46097   4.838   5.456  11.481
   678G11  C0G046098   4.903   5.532  11.381
   678G11  C0GD46099   4.884   5.677  11.372
   678G11  C0FC46100   4.798   5.735  11.466
   678G11  C0GH46101   4.794   5.877  11.477
   678G11  C0EY46102   4.704   5.933  11.569
   678G11  C0EX46103   4.693   6.072  11.577
   678G11  C0EW46104   4.613   6.128  11.674
   678G11  C0FR46105   4.590   6.267  11.679
   678G11  H01D46106   4.523   6.313  11.751
   678G11  C0FS46107   4.669   6.353  11.606
   678G11  H01C46108   4.663   6.461  11.610
   678G11  C0GJ46109   4.757   6.297  11.515
   678G11  H01N46110   4.810   6.368  11.452
   678G11  C0EV46111   4.540   6.042  11.758
   678G11  C0FT46112   4.468   6.093  11.865
   678G11  H01E46113   4.459   6.196  11.894
   678G11  C0EU46114   4.534   5.907  11.737
   678G11  C0ET46115   4.444   5.824  11.804
   678G11  C0EI46116   4.451   5.687  11.810
   678G11  C0F146117   4.546   5.631  11.722
   678G11  C0F046118   4.632   5.710  11.643
   678G11  C0EH46119   4.361   5.611  11.882
   678G11  C0EG46120   4.264   5.672  11.969
   678G11  C0EJ46121   4.377   5.468  11.876
   678G11  C0F346122   4.477   5.413  11.799
   678G11  C0EK46123   4.300   5.385  11.959
   678G11  C0EL46124   4.188   5.447  12.041
   678G11  C0EM46125   4.111   5.340  12.102
   678G11  C0EN46126   4.145   5.209  12.095
   678G11  C07I46127   4.062   5.128  12.166
   678G11  C07446128   4.073   4.991  12.172
   678G11  C07346129   3.971   4.925  12.231
   678G11  C07246130   3.981   4.784  12.229
   678G11  C07546131   4.178   4.939  12.098
   678G11  C07646132   4.264   5.021  12.028
   678G11  C07846133   4.361   4.965  11.948
   678G11  C07G46134   4.181   4.802  12.096
   678G11  C07046135   4.280   4.748  12.016
   678G11  C07Z46136   3.961   5.198  12.224
   678G11  C07746137   4.249   5.154  12.020
   678G11  C0EO46138   4.324   5.244  11.952
   678G11  C0F446139   4.421   5.190  11.870
   678G11  C0EQ46140   4.360   5.887  11.897
   678G11  C0FQ46141   4.769   6.158  11.499
   678G11  C0GI46142   4.849   6.100  11.399
   678G11  H01L46143   4.896   6.168  11.329
   678G11  C0EZ46144   4.621   5.847  11.646
   678G11  C0GG46145   4.859   5.964  11.387
   678G11  C0GF46146   4.929   5.904  11.281
   678G11  H01M46147   4.970   5.971  11.208
   678G11  C0GE46148   4.950   5.761  11.282
   678G11  H01K46149   4.996   5.707  11.200
   678G11  O00J46150   5.001   5.471  11.300
   678G11  C0GA46151   5.022   5.341  11.308
   678G11  C0G946152   5.121   5.289  11.225
   678G11  H01H46153   5.183   5.352  11.163
   678G11  C0G846154   5.143   5.149  11.225
   678G11  C0G746155   5.241   5.087  11.135
   678G11  H01I46156   5.303   5.140  11.065
   678G11  O00I46157   5.255   4.951  11.133
   678G11  C0G646158   5.176   4.874  11.219
   678G11  H01J46159   5.213   4.773  11.221
   678G11  C02D46160   5.066   4.927  11.287
   678G11  C02C46161   4.984   4.840  11.363
   678G11  C01746162   4.975   4.700  11.341
   678G11  C01646163   4.898   4.621  11.425
   678G11  O00146164   5.029   4.649  11.221
   678G11  C01846165   5.035   4.519  11.198
   678G11  C00946166   4.971   4.431  11.288
   678G11  C00846167   4.961   4.287  11.274
   678G11  C00746168   4.996   4.190  11.173
   678G11  C00646169   5.035   4.221  11.043
   678G11  C00546170   5.047   4.127  10.935
   678G11  C00446171   5.019   3.985  10.927
   678G11  C00346172   4.938   3.896  11.014
   678G11  C00246173   4.902   3.764  10.972
   678G11  C00P46174   4.814   3.683  11.052
   678G11  C00O46175   4.756   3.569  10.994
   678G11  C00N46176   4.662   3.490  11.062
   678G11  C01046177   4.592   3.384  11.007
   678G11  C01146178   4.502   3.308  11.078
   678G11  C01Q46179   4.426   3.208  11.010
   678G11  C01U46180   4.451   3.169  10.880
   678G11  C01246181   4.558   3.233  10.813
   678G11  H00046182   4.593   3.192  10.719
   678G11  C01V46183   4.371   3.063  10.820
   678G11  H00746184   4.394   3.038  10.717
   678G11  O00546185   4.270   2.995  10.886
   678G11  C01W46186   4.243   3.046  11.013
   678G11  C03146187   4.131   2.980  11.076
   678G11  C03246188   4.099   3.019  11.212
   678G11  H00A46189   4.017   2.977  11.268
   678G11  C03346190   4.181   3.110  11.279
   678G11  H00B46191   4.142   3.146  11.372
   678G11  C01O46192   4.293   3.173  11.214
   678G11  C01N46193   4.367   3.269  11.282
   678G11  C01M46194   4.353   3.292  11.428
   678G11  C01L46195   4.257   3.265  11.544
   678G11  C01K46196   4.293   3.362  11.639
   678G11  C01Y46197   4.217   3.408  11.747
   678G11  C02I46198   4.106   3.334  11.784
   678G11  C02N46199   4.028   3.378  11.897
   678G11  C02M46200   3.921   3.297  11.941
   678G11  C02L46201   3.893   3.173  11.880
   678G11  C02K46202   3.978   3.128  11.778
   678G11  C02U46203   3.960   2.994  11.736
   678G11  C02V46204   3.847   2.922  11.774
   678G11  C03H46205   3.823   2.788  11.732
   678G11  H00C46206   3.894   2.720  11.688
   678G11  C02W46207   4.056   2.942  11.658
   678G11  C02X46208   4.145   3.028  11.596
   678G11  C02Y46209   4.239   2.943  11.525
   678G11  H00846210   4.327   2.976  11.471
   678G11  C02Z46211   4.187   2.806  11.527
   678G11  O00446212   4.238   2.709  11.471
   678G11  O00346213   4.075   2.811  11.613
   678G11  C02J46214   4.080   3.211  11.718
   678G11  C01Z46215   4.251   3.531  11.800
   678G11  C02046216   4.350   3.616  11.740
   678G11  C01I46217   4.429   3.566  11.640
   678G11  C01H46218   4.517   3.643  11.569
   678G11  C00K46219   4.569   3.595  11.451
   678G11  C01S46220   4.515   3.486  11.391
   678G11  C01446221   4.541   3.451  11.265
   678G11  C00J46222   4.656   3.682  11.380
   678G11  C00I46223   4.696   3.801  11.435
   678G11  C00H46224   4.632   3.847  11.543
   678G11  C00G46225   4.646   3.983  11.580
   678G11  C00S46226   4.777   3.880  11.357
   678G11  C00T46227   4.798   4.007  11.404
   678G11  C00U46228   4.880   4.090  11.332
   678G11  C00R46229   4.822   3.846  11.230
   678G11  C00L46230   4.682   3.649  11.247
   678G11  C02846231   4.535   3.770  11.607
   678G11  C02346232   4.462   3.821  11.711
   678G11  C02446233   4.480   3.951  11.759
   678G11  C02146234   4.367   3.747  11.776
   678G11  C02246235   4.287   3.801  11.871
   678G11  C02H46236   4.302   3.933  11.915
   678G11  C03046237   4.215   3.988  12.008
   678G11  C03446238   4.124   3.909  12.065
   678G11  C02P46239   4.199   3.719  11.935
   678G11  C02B46240   4.175   3.583  11.900
   678G11  C01J46241   4.401   3.436  11.597
   678G11  C01X46242   4.163   3.167  11.607
   678G11  C01T46243   4.435   3.396  11.466
   678G11  H00946244   4.078   2.908  11.016
   678G11  C01P46245   4.320   3.145  11.077
   678G11  C01R46246   4.476   3.338  11.212
   678G11  C00Z46247   4.627   3.343  10.877
   678G11  O00046248   4.730   3.406  10.810
   678G11  C00M46249   4.630   3.531  11.194
   678G11  C00Y46250   4.793   3.521  10.867
   678G11  C01346251   4.886   3.595  10.797
   678G11  H00146252   4.924   3.554  10.705
   678G11  C00Q46253   4.780   3.722  11.179
   678G11  C00146254   4.940   3.719  10.845
   678G11  C00046255   5.040   3.789  10.778
   678G11  H00646256   5.097   3.746  10.697
   678G11  C00W46257   4.895   3.934  11.148
   678G11  C01G46258   5.075   3.923  10.814
   678G11  H00546259   5.151   3.977  10.759
   678G11  C01C46260   5.094   4.202  10.823
   678G11  H00246261   5.116   4.178  10.720
   678G11  C01B46262   5.106   4.337  10.864
   678G11  C01D46263   5.152   4.453  10.791
   678G11  H00346264   5.173   4.454  10.685
   678G11  C01E46265   5.159   4.573  10.860
   678G11  H00446266   5.183   4.663  10.805
   678G11  O00246267   5.131   4.585  10.994
   678G11  C01A46268   5.081   4.349  11.002
   678G11  C00V46269   4.933   4.063  11.208
   678G11  C01946270   5.092   4.477  11.071
   678G11  C02E46271   4.899   4.897  11.458
   678G11  C0FX46272   4.886   5.033  11.469
   678G11  C0FW46273   4.796   5.097  11.559
   678G11  C0GB46274   4.966   5.119  11.392
   678G11  C0G346275   4.821   4.817  11.540
   678G11  C07H46276   4.732   4.879  11.632
   678G11  C0GC46277   5.061   5.064  11.304
   678G11  C0G246278   4.946   5.260  11.394
   678G11  C0G146279   4.854   5.315  11.480
   678G11  C0FB46280   4.727   5.655  11.552
   678G11  C0F246281   4.564   5.492  11.723
   678G11  C0FY46282   4.778   5.236  11.566
   678G11  C0F546283   4.499   5.275  11.797
   678G11  C0FV46284   4.713   5.017  11.634
   678G11  C07946285   4.441   5.051  11.870
   678G11  C07A46286   4.369   4.830  11.943
   678G11  C06Y46287   4.386   4.555  11.931
   678G11  C07D46288   4.649   4.798  11.708
   678G11  C01F46289   4.823   4.681  11.529
   678G11  C00A46290   4.903   4.487  11.398
   678G11  C00X46291   4.893   4.218  11.370
   678G11  C00F46292   4.732   4.063  11.514
   678G11  C02946293   4.656   4.388  11.660
   678G11  C02546294   4.567   4.036  11.685
   678G11  C06U46295   4.479   4.362  11.820
   678G11  C02A46296   4.399   4.009  11.855
   678G11  C05Y46297   4.214   4.122  12.034
   678G11  C05Z46298   4.115   4.176  12.114
   678G11  C06046299   4.019   4.098  12.174
   678G11  C06246300   3.909   4.149  12.246
   678G11  C06T46301   4.388   4.420  11.911
   678G11  C06A46302   4.105   4.310  12.127
   678G11  C06Z46303   4.286   4.612  12.009
   678G11  C06Q46304   4.079   4.722  12.158
   678G11  C06846305   4.004   4.369  12.204
   678G11  C06746306   3.905   4.289  12.264
   678G11  C06346307   3.586   4.476  12.459
   678G11  C06C46308   3.482   4.545  12.525
   678G11  C06D46309   3.375   4.480  12.581
   678G11  C06E46310   3.265   4.536  12.639
   678G11  C07Q46311   3.253   4.672  12.643
   678G11  C07P46312   3.357   4.749  12.585
   678G11  C07T46313   3.345   4.886  12.581
   678G11  C07U46314   3.446   4.957  12.524
   678G11  C07V46315   3.428   5.096  12.518
   678G11  C08446316   3.315   5.155  12.565
   678G11  C08C46317   3.213   5.080  12.618
   678G11  C08B46318   3.095   5.136  12.655
   678G11  C08A46319   3.001   5.057  12.711
   678G11  C08946320   3.006   4.922  12.726
   678G11  C08846321   2.895   4.846  12.767
   678G11  C08746322   2.906   4.705  12.770
   678G11  C08646323   3.024   4.648  12.728
   678G11  C08X46324   2.771   4.910  12.800
   678G11  C08T46325   2.762   5.054  12.759
   678G11  C08D46326   3.126   4.864  12.686
   678G11  C08U46327   2.882   5.115  12.731
   678G11  C08V46328   2.854   5.244  12.689
   678G11  C0CY46329   2.957   5.330  12.655
   678G11  C0CX46330   2.925   5.458  12.632
   678G11  C0CW46331   3.024   5.544  12.587
   678G11  C0CV46332   3.150   5.487  12.566
   678G11  C0D446333   3.171   5.353  12.588
   678G11  C0CU46334   3.252   5.571  12.516
   678G11  C0CT46335   3.235   5.706  12.490
   678G11  C0CS46336   3.108   5.757  12.522
   678G11  C0D646337   3.369   5.501  12.485
   678G11  C0EC46338   3.396   5.365  12.498
   678G11  C07X46339   3.518   5.302  12.457
   678G11  C0DL46340   3.474   5.583  12.438
   678G11  C0DK46341   3.599   5.523  12.412
   678G11  C0DN46342   3.683   5.627  12.387
   678G11  C0D846343   3.473   5.722  12.431
   678G11  C08W46344   2.723   5.281  12.712
   678G11  C0CQ46345   2.687   5.425  12.700
   678G11  C09346346   3.080   5.273  12.639
   678G11  C09246347   3.291   5.289  12.556
   678G11  C08546348   3.231   4.940  12.632
   678G11  C07S46349   3.134   4.728  12.687
   678G11  C06F46350   3.160   4.458  12.693
   678G11  C07O46351   3.468   4.686  12.528
   678G11  C07N46352   3.566   4.759  12.465
   678G11  C05D46353   3.393   4.342  12.590
   678G11  C05C46354   3.295   4.272  12.654
   678G11  C05N46355   3.327   4.143  12.624
   678G11  C05M46356   3.613   4.014  12.405
   678G11  C05I46357   3.816   4.061  12.296
   678G11  C06146358   4.026   3.966  12.149
   678G11  C02Q46359   4.124   3.778  12.030
   678G11  C02O46360   4.068   3.502  11.950
   678G11  C03Q46361   3.844   3.660  12.189
   678G11  C03O46362   3.630   3.574  12.258
   678G11  C03L46363   3.472   3.275  12.174
   678G11  C02S46364   3.816   3.337  12.038
   678G11  C02T46365   3.772   3.101  11.913
   678G11  C03K46366   3.438   3.153  12.095
   678G11  C03I46367   3.747   2.978  11.853
   678G11  C03G46368   3.700   2.728  11.738
   678G11  H00D46369   3.682   2.626  11.709
   678G11  C03J46370   3.386   2.944  11.911
   678G11  C03W46371   3.130   2.886  11.831
   678G11  C04I46372   3.036   3.027  11.989
   678G11  C04K46373   2.832   3.164  12.127
   678G11  C04N46374   2.742   3.239  12.200
   678G11  C04X46375   2.678   3.418  12.359
   678G11  C05046376   2.623   3.614  12.501
   678G11  C05W46377   2.899   3.633  12.555
   678G11  C05S46378   2.673   4.013  12.730
   678G11  C05R46379   2.995   3.880  12.695
   678G11  C05O46380   3.224   4.050  12.657
   678G11  C05B46381   3.175   4.325  12.704
   678G11  C05A46382   2.849   4.173  12.781
   678G11  C07R46383   3.033   4.508  12.720
   678G11  C08N46384   2.786   4.631  12.794
   678G11  C08M46385   2.666   4.695  12.843
   678G11  C08L46386   2.564   4.611  12.884
   678G11  C09146387   2.712   4.161  12.751
   678G11  C09K46388   2.382   4.246  12.724
   678G11  H00M46389   2.389   4.203  12.626
   678G11  C08K46390   2.569   4.470  12.868
   678G11  C09J46391   2.270   4.314  12.778
   678G11  C09I46392   2.150   4.369  12.737
   678G11  C09L46393   2.045   4.325  12.655
   678G11  H00N46394   2.071   4.229  12.615
   678G11  C09Q46395   1.929   4.395  12.652
   678G11  H00O46396   1.844   4.348  12.605
   678G11  O00B46397   1.912   4.520  12.703
   678G11  C09G46398   2.013   4.574  12.787
   678G11  C09F46399   1.990   4.710  12.826
   678G11  O00A46400   1.870   4.764  12.789
   678G11  C09P46401   1.832   4.880  12.848
   678G11  H00P46402   1.757   4.877  12.925
   678G11  C09O46403   1.928   4.980  12.863
   678G11  C09D46404   2.066   4.935  12.879
   678G11  C09C46405   2.186   5.021  12.895
   678G11  C09N46406   2.212   5.156  12.855
   678G11  C09T46407   2.126   5.249  12.803
   678G11  C09S46408   1.991   5.231  12.843
   678G11  C0CP46409   1.957   5.362  12.876
   678G11  C0CN46410   2.065   5.455  12.868
   678G11  C0CO46411   2.050   5.580  12.928
   678G11  H01446412   2.132   5.650  12.921
   678G11  C0CZ46413   1.919   5.610  12.983
   678G11  H01546414   1.902   5.705  13.033
   678G11  C0D046415   1.809   5.520  12.985
   678G11  C0G546416   1.678   5.546  13.019
   678G11  H01F46417   1.657   5.650  13.038
   678G11  C0G446418   1.579   5.451  13.026
   678G11  H01G46419   1.479   5.476  13.058
   678G11  O00H46420   1.614   5.318  13.010
   678G11  C0D246421   1.737   5.286  12.965
   678G11  C09V46422   1.768   5.155  12.918
   678G11  H00Q46423   1.694   5.080  12.943
   678G11  C0D146424   1.835   5.388  12.947
   678G11  C09R46425   1.899   5.122  12.872
   678G11  C09H46426   2.129   4.492  12.809
   678G11  C09E46427   2.092   4.793  12.885
   678G11  C09B46428   2.299   4.981  12.954
   678G11  C08Z46429   2.440   4.674  12.930
   678G11  C08O46430   2.661   4.835  12.851
   678G11  C09A46431   2.396   5.075  12.963
   678G11  C08S46432   2.663   5.157  12.754
   678G11  C09946433   2.347   5.190  12.896
   678G11  C09U46434   2.176   5.385  12.807
   678G11  C0BO46435   2.383   5.791  12.636
   678G11  C0CL46436   2.554   5.464  12.708
   678G11  C0D346437   2.797   5.505  12.661
   678G11  C0D546438   3.003   5.675  12.567
   678G11  C0BR46439   2.620   5.823  12.611
   678G11  C0BQ46440   2.491   5.872  12.617
   678G11  C0BL46441   2.230   5.970  12.603
   678G11  C0AF46442   2.180   6.234  12.569
   678G11  C0BH46443   2.548   6.230  12.540
   678G11  C0BG46444   2.655   6.316  12.518
   678G11  C0BD46445   2.504   6.501  12.505
   678G11  C0AG46446   2.167   6.366  12.556
   678G11  C0AI46447   2.013   6.541  12.490
   678G11  C0AV46448   1.965   6.773  12.366
   678G11  C0BB46449   2.311   6.820  12.492
   678G11  O00C46450   2.079   6.976  12.269
   678G11  C0BC46451   2.406   6.911  12.440
   678G11  C0B946452   2.482   6.640  12.489
   678G11  O00E46453   2.813   6.749  12.369
   678G11  C0CA46454   2.941   6.712  12.376
   678G11  O00F46455   3.024   6.792  12.340
   678G11  C0BF46456   2.633   6.453  12.493
   678G11  C0C546457   2.962   6.575  12.418
   678G11  C0C446458   3.094   6.523  12.408
   678G11  H01146459   3.174   6.589  12.376
   678G11  C0C846460   2.790   6.268  12.517
   678G11  C0C246461   3.119   6.389  12.442
   678G11  C0C346462   3.247   6.331  12.430
   678G11  C0DY46463   3.363   6.391  12.382
   678G11  H01646464   3.391   6.491  12.355
   678G11  C0DX46465   3.465   6.290  12.384
   678G11  C0DW46466   3.589   6.333  12.324
   678G11  C0BY46467   2.943   6.085  12.533
   678G11  C0DB46468   3.274   6.194  12.439
   678G11  C0CC46469   3.096   5.894  12.523
   678G11  C0D746470   3.347   5.789  12.458
   678G11  C0DZ46471   3.405   6.156  12.402
   678G11  C0DM46472   3.613   5.752  12.399
   678G11  C0DQ46473   3.674   6.089  12.285
   678G11  C0DV46474   3.673   6.234  12.267
   678G11  C0E046475   3.644   6.464  12.289
   678G11  C0FO46476   3.984   6.538  12.229
   678G11  C0E346477   3.676   6.580  12.372
   678G11  H01746478   3.650   6.594  12.476
   678G11  C0GV46479   4.013   6.637  12.322
   678G11  C0ES46480   4.065   6.425  12.224
   678G11  C0GQ46481   4.348   6.552  12.420
   678G11  C0FJ46482   4.519   6.262  12.266
   678G11  C0ED46483   4.246   6.207  12.196
   678G11  C0ER46484   4.384   6.010  11.933
   678G11  C0EP46485   4.276   5.820  11.974
   678G11  C0E646486   4.045   6.055  12.168
   678G11  C0DE46487   3.904   5.789  12.239
   678G11  C0EA46488   4.174   5.592  12.048
   678G11  C0DF46489   3.910   5.658  12.299
   678G11  C08046490   3.999   5.330  12.187
   678G11  C0DO46491   3.802   5.583  12.333
   678G11  C0DJ46492   3.619   5.382  12.412
   678G11  C07K46493   3.858   5.127  12.299
   678G11  C07W46494   3.534   5.168  12.468
   678G11  C08346495   3.559   4.897  12.472
   678G11  C07J46496   3.867   4.990  12.293
   678G11  C06O46497   3.886   4.708  12.296
   678G11  C06M46498   3.677   4.693  12.408
   688G11  C07146499   7.736   8.846  13.342
   688G11  C07L46500   7.687   8.735  13.278
   688G11  C07M46501   7.746   8.692  13.157
   688G11  C07Y46502   7.701   8.576  13.093
   688G11  C08146503   7.594   8.500  13.145
   688G11  C08246504   7.556   8.382  13.072
   688G11  C0DI46505   7.446   8.289  13.099
   688G11  C0DH46506   7.356   8.280  13.210
   688G11  C0DG46507   7.260   8.177  13.182
   688G11  C0E946508   7.203   8.073  13.269
   688G11  C0E846509   7.189   7.957  13.172
   688G11  C0E746510   7.105   7.841  13.180
   688G11  C0EB46511   7.028   7.818  13.302
   688G11  C0EF46512   6.923   7.721  13.317
   688G11  C0EE46513   6.818   7.679  13.235
   688G11  C0FD46514   6.684   7.680  13.281
   688G11  C0FE46515   6.640   7.728  13.408
   688G11  H01B46516   6.705   7.789  13.469
   688G11  C0FF46517   6.505   7.723  13.442
   688G11  H01A46518   6.461   7.759  13.533
   688G11  C0FG46519   6.409   7.672  13.353
   688G11  H01846520   6.307   7.687  13.386
   688G11  C0FH46521   6.440   7.628  13.227
   688G11  C0FI46522   6.352   7.587  13.125
   688G11  H01946523   6.246   7.587  13.142
   688G11  O00K46524   6.392   7.538  13.003
   688G11  C0FL46525   6.525   7.527  12.978
   688G11  C0FK46526   6.624   7.576  13.067
   688G11  C0FM46527   6.762   7.563  13.032
   688G11  C0FN46528   6.796   7.476  12.924
   688G11  C0FP46529   6.697   7.440  12.835
   688G11  C0GO46530   6.721   7.364  12.719
   688G11  C0GN46531   6.632   7.346  12.619
   688G11  C0GR46532   6.502   7.398  12.642
   688G11  C0GS46533   6.407   7.393  12.547
   688G11  H01Q46534   6.305   7.419  12.574
   688G11  C0GT46535   6.432   7.341  12.424
   688G11  H01O46536   6.350   7.329  12.355
   688G11  C0GU46537   6.569   7.302  12.395
   688G11  H01P46538   6.590   7.278  12.291
   688G11  O00L46539   6.464   7.431  12.769
   688G11  C0GM46540   6.674   7.303  12.492
   688G11  C0GL46541   6.814   7.287  12.470
   688G11  H01R46542   6.845   7.260  12.370
   688G11  C0GK46543   6.904   7.286  12.578
   688G11  C0GP46544   7.049   7.295  12.593
   688G11  C0E246545   7.076   7.302  12.737
   688G11  C0E146546   7.197   7.372  12.756
   688G11  C0DU46547   7.213   7.504  12.825
   688G11  C0DT46548   7.142   7.569  12.920
   688G11  C0E446549   7.020   7.536  12.959
   688G11  C0E546550   6.988   7.630  13.059
   688G11  C0DS46551   7.182   7.692  12.972
   688G11  C0DR46552   7.282   7.763  12.907
   688G11  C0DD46553   7.328   7.891  12.944
   688G11  C0DC46554   7.421   7.921  12.835
   688G11  C0DP46555   7.445   7.805  12.745
   688G11  C0DA46556   7.544   7.784  12.635
   688G11  C0D946557   7.663   7.868  12.591
   688G11  C0CR46558   7.759   7.814  12.496
   688G11  C0C046559   7.743   7.689  12.446
   688G11  C0BZ46560   7.840   7.620  12.369
   688G11  C0C146561   7.824   7.484  12.336
   688G11  C0C746562   7.923   7.418  12.270
   688G11  C0C646563   7.917   7.280  12.246
   688G11  C0C946564   8.024   7.214  12.183
   688G11  C0B846565   8.013   7.078  12.160
   688G11  C0B746566   8.122   7.003  12.110
   688G11  C0B646567   8.128   6.859  12.070
   688G11  C0B546568   8.020   6.799  11.997
   688G11  H00Z46569   7.915   6.825  11.994
   688G11  C0B446570   8.081   6.721  11.891
   688G11  H01046571   8.052   6.677  11.797
   688G11  C0B346572   8.226   6.712  11.921
   688G11  C0AP46573   8.344   6.724  11.831
   688G11  C0AQ46574   8.422   6.826  11.896
   688G11  C0AR46575   8.509   6.908  11.820
   688G11  C0AS46576   8.528   7.032  11.872
   688G11  C0AT46577   8.451   7.092  11.972
   688G11  C0BA46578   8.353   7.018  12.028
   688G11  C0AU46579   8.450   7.230  11.981
   688G11  C0BE46580   8.345   7.290  12.046
   688G11  C0BI46581   8.345   7.430  12.055
   688G11  C0BJ46582   8.446   7.507  11.989
   688G11  C0BK46583   8.447   7.646  11.992
   688G11  C0BW46584   8.360   7.710  12.076
   688G11  C0BV46585   8.253   7.637  12.135
   688G11  C0BU46586   8.154   7.703  12.202
   688G11  C0BX46587   8.048   7.630  12.250
   688G11  C0BT46588   8.170   7.840  12.230
   688G11  C0CD46589   8.079   7.896  12.317
   688G11  C0CB46590   7.968   7.823  12.369
   688G11  C0CE46591   8.100   8.025  12.357
   688G11  C0CK46592   8.211   8.097  12.316
   688G11  C0BS46593   8.303   8.038  12.220
   688G11  C0CJ46594   8.419   8.108  12.180
   688G11  C0BP46595   8.503   8.050  12.081
   688G11  C0CI46596   8.615   8.112  12.030
   688G11  C0CH46597   8.662   8.061  11.907
   688G11  H01246598   8.705   8.129  11.835
   688G11  C0BN46599   8.655   7.926  11.876
   688G11  C0CG46600   8.732   7.862  11.781
   688G11  C0CF46601   8.832   7.931  11.707
   688G11  H01346602   8.852   8.037  11.716
   688G11  O00G46603   8.917   7.871  11.615
   688G11  C0AA46604   8.905   7.739  11.602
   688G11  C0A946605   8.981   7.674  11.513
   688G11  H00U46606   9.054   7.725  11.452
   688G11  C0A846607   8.955   7.540  11.468
   688G11  H00V46608   9.030   7.492  11.406
   688G11  C0A746609   8.850   7.469  11.517
   688G11  C0A646610   8.776   7.527  11.624
   688G11  C0A546611   8.696   7.455  11.714
   688G11  C0A446612   8.690   7.313  11.710
   688G11  C0A346613   8.714   7.210  11.617
   688G11  C0A246614   8.742   7.236  11.478
   688G11  C0A146615   8.752   7.136  11.378
   688G11  C0A046616   8.713   6.992  11.366
   688G11  C09Z46617   8.740   6.933  11.245
   688G11  C09Y46618   8.705   6.801  11.214
   688G11  H00Y46619   8.725   6.748  11.122
   688G11  C09X46620   8.643   6.728  11.311
   688G11  C09W46621   8.619   6.591  11.283
   688G11  H00R46622   8.662   6.548  11.194
   688G11  C0AX46623   8.548   6.507  11.370
   688G11  H00S46624   8.532   6.401  11.363
   688G11  C0AW46625   8.492   6.571  11.476
   688G11  H00T46626   8.431   6.510  11.541
   688G11  C0AN46627   8.524   6.706  11.513
   688G11  C0AO46628   8.480   6.754  11.638
   688G11  C0AM46629   8.604   6.785  11.434
   688G11  C0B246630   8.808   7.000  11.137
   688G11  O00D46631   8.824   6.950  11.031
   688G11  C0B146632   8.845   7.136  11.150
   688G11  H00W46633   8.895   7.189  11.070
   688G11  C0AL46634   8.646   6.918  11.469
   688G11  C0AK46635   8.615   6.955  11.601
   688G11  C0B046636   8.826   7.197  11.276
   688G11  C0AZ46637   8.869   7.324  11.310
   688G11  H00X46638   8.918   7.399  11.250
   688G11  C0AJ46639   8.649   7.089  11.655
   688G11  C0AH46640   8.619   7.251  11.811
   688G11  C0AE46641   8.620   7.519  11.815
   688G11  C0AD46642   8.625   7.654  11.833
   688G11  C0AY46643   8.820   7.346  11.442
   688G11  C0AB46644   8.803   7.660  11.664
   688G11  C0AC46645   8.721   7.724  11.757
   688G11  C0BM46646   8.562   7.854  11.948
   688G11  C0CM46647   8.661   8.234  12.091
   688G11  C09M46648   8.569   8.306  12.173
   688G11  C09846649   8.588   8.450  12.174
   688G11  C08R46650   8.540   8.550  12.266
   688G11  C08Q46651   8.590   8.681  12.243
   688G11  C08P46652   8.614   8.805  12.315
   688G11  C08Y46653   8.714   8.891  12.260
   688G11  C09746654   8.803   8.840  12.169
   688G11  C09646655   8.931   8.878  12.189
   688G11  C09046656   8.922   8.985  12.283
   688G11  C09546657   9.031   9.043  12.350
   688G11  C09446658   9.026   9.146  12.452
   688G11  C08J46659   8.918   9.191  12.528
   688G11  C08I46660   8.972   9.219  12.661
   688G11  C08H46661   8.873   9.209  12.759
   688G11  C08G46662   8.759   9.137  12.694
   688G11  C08F46663   8.626   9.098  12.729
   688G11  C08E46664   8.553   9.158  12.835
   688G11  C05946665   8.584   9.280  12.904
   688G11  C05846666   8.494   9.332  12.999
   688G11  C05746667   8.521   9.443  13.081
   688G11  C05646668   8.644   9.507  13.057
   688G11  C05546669   8.720   9.468  12.961
   688G11  C05446670   8.854   9.514  12.979
   688G11  C05346671   8.857   9.589  13.107
   688G11  C05246672   8.964   9.639  13.189
   688G11  C05146673   9.102   9.608  13.152
   688G11  C05U46674   9.149   9.527  13.040
   688G11  C05T46675   9.083   9.450  12.938
   688G11  C06K46676   9.182   9.435  12.838
   688G11  H00J46677   9.155   9.404  12.738
   688G11  C06L46678   9.312   9.463  12.889
   688G11  H00I46679   9.406   9.451  12.838
   688G11  C05V46680   9.286   9.519  13.019
   688G11  C06J46681   9.383   9.566  13.104
   688G11  H00K46682   9.488   9.556  13.083
   688G11  C05X46683   9.348   9.628  13.221
   688G11  C06I46684   9.443   9.675  13.318
   688G11  H00L46685   9.549   9.663  13.300
   688G11  C04Z46686   9.404   9.729  13.442
   688G11  C06H46687   9.502   9.787  13.526
   688G11  H00H46688   9.602   9.795  13.488
   688G11  C04Y46689   9.458   9.836  13.655
   688G11  C06G46690   9.560   9.893  13.742
   688G11  O00946691   9.678   9.900  13.707
   688G11  O00846692   9.516   9.939  13.859
   688G11  C04P46693   9.388   9.926  13.903
   688G11  C04J46694   9.344   9.971  14.032
   688G11  C04Q46695   9.420  10.036  14.133
   688G11  H00E46696   9.524  10.056  14.112
   688G11  C04M46697   9.367  10.060  14.261
   688G11  C04R46698   9.441  10.127  14.363
   688G11  H00F46699   9.542  10.157  14.340
   688G11  C04S46700   9.378  10.159  14.477
   688G11  H00G46701   9.430  10.225  14.545
   688G11  O00746702   9.253  10.114  14.511
   688G11  C03V46703   9.175  10.061  14.410
   688G11  C03U46704   9.039  10.029  14.432
   688G11  O00646705   8.988  10.054  14.556
   688G11  C03F46706   8.865  10.015  14.585
   688G11  C03E46707   8.775   9.967  14.487
   688G11  C03D46708   8.825   9.942  14.356
   688G11  C03C46709   8.733   9.893  14.257
   688G11  C03B46710   8.604   9.870  14.307
   688G11  C03A46711   8.513   9.813  14.213
   688G11  C03946712   8.549   9.797  14.076
   688G11  C03846713   8.420   9.740  14.020
   688G11  C03746714   8.324   9.751  14.123
   688G11  C03646715   8.192   9.735  14.094
   688G11  C02R46716   8.088   9.732  14.183
   688G11  C03546717   7.981   9.677  14.106
   688G11  C03R46718   8.027   9.643  13.975
   688G11  C03S46719   7.981   9.533  13.900
   688G11  C04946720   8.058   9.498  13.795
   688G11  C04846721   8.186   9.558  13.778
   688G11  C03P46722   8.254   9.635  13.878
   688G11  C04746723   8.247   9.530  13.660
   688G11  C04646724   8.363   9.594  13.605
   688G11  C04546725   8.454   9.671  13.664
   688G11  C03T46726   8.469   9.713  13.790
   688G11  C04446727   8.588   9.795  13.792
   688G11  C04346728   8.637   9.811  13.654
   688G11  C04246729   8.779   9.799  13.661
   688G11  C04146730   8.811   9.823  13.805
   688G11  C04046731   8.939   9.826  13.854
   688G11  C03Z46732   8.986   9.871  13.984
   688G11  C04H46733   9.123   9.893  13.974
   688G11  C04G46734   9.168   9.856  13.852
   688G11  C03N46735   8.920   9.893  14.108
   688G11  C03Y46736   9.011   9.943  14.209
   688G11  C03X46737   9.151   9.966  14.189
   688G11  C04F46738   9.063   9.806  13.777
   688G11  C04E46739   9.091   9.775  13.639
   688G11  C04O46740   9.226   9.782  13.598
   688G11  C04D46741   9.002   9.754  13.536
   688G11  C04V46742   9.042   9.718  13.409
   688G11  C04W46743   9.175   9.700  13.371
   688G11  C04C46744   8.859   9.766  13.539
   688G11  C04L46745   8.813   9.727  13.400
   688G11  C04U46746   8.678   9.700  13.366
   688G11  C05Q46747   8.646   9.620  13.260
   688G11  C05P46748   8.518   9.574  13.278
   688G11  C04T46749   8.480   9.610  13.397
   688G11  C04B46750   8.570   9.690  13.452
   688G11  C03M46751   8.694   9.814  13.888
   688G11  C04A46752   8.555   9.724  13.585
   688G11  C05H46753   8.369   9.560  13.470
   688G11  C05G46754   8.260   9.467  13.438
   688G11  C05F46755   8.225   9.421  13.313
   688G11  C05E46756   8.151   9.298  13.302
   688G11  C05L46757   8.043   9.226  13.370
   688G11  C05K46758   8.000   9.265  13.499
   688G11  C05J46759   8.065   9.360  13.588
   688G11  C06646760   7.895   9.184  13.552
   688G11  C06546761   7.838   9.076  13.481
   688G11  C06446762   7.890   9.034  13.355
   688G11  C06N46763   7.736   9.000  13.538
   688G11  C06946764   7.689   9.029  13.667
   688G11  C06P46765   7.591   8.954  13.724
   688G11  C06R46766   7.551   8.974  13.855
   688G11  C06B46767   7.603   9.079  13.923
   688G11  C06S46768   7.556   9.107  14.050
   688G11  C02G46769   7.607   9.212  14.127
   688G11  C02F46770   7.572   9.233  14.257
   688G11  C02746771   7.493   9.140  14.325
   688G11  C02646772   7.462   9.155  14.455
   688G11  C00E46773   7.386   9.061  14.521
   688G11  C00D46774   7.371   9.066  14.653
   688G11  C00C46775   7.296   8.968  14.707
   688G11  C00B46776   7.243   8.858  14.647
   688G11  C01546777   7.260   8.850  14.515
   688G11  C07F46778   7.208   8.740  14.451
   688G11  C07E46779   7.234   8.734  14.313
   688G11  C06W46780   7.313   8.828  14.245
   688G11  C06V46781   7.362   8.936  14.316
   688G11  C06X46782   7.343   8.814  14.111
   688G11  C07B46783   7.294   8.706  14.043
   688G11  C07C46784   7.214   8.609  14.106
   688G11  C0FU46785   7.172   8.493  14.040
   688G11  C0F746786   7.097   8.399  14.105
   688G11  C0F646787   7.058   8.282  14.034
   688G11  C0F846788   6.970   8.193  14.091
   688G11  C0F946789   6.936   8.078  14.026
   688G11  C0FA46790   6.857   7.982  14.092
   688G11  C0FZ46791   6.800   8.014  14.214
   688G11  C0G046792   6.724   7.919  14.279
   688G11  C0GD46793   6.700   7.791  14.227
   688G11  C0FC46794   6.755   7.764  14.096
   688G11  C0GH46795   6.740   7.632  14.047
   688G11  C0EY46796   6.781   7.607  13.919
   688G11  C0EX46797   6.766   7.477  13.860
   688G11  C0EW46798   6.802   7.461  13.725
   688G11  C0FR46799   6.783   7.333  13.666
   688G11  H01D46800   6.809   7.318  13.562
   688G11  C0FS46801   6.723   7.228  13.738
   688G11  H01C46802   6.705   7.132  13.691
   688G11  C0GJ46803   6.685   7.249  13.865
   688G11  H01N46804   6.625   7.176  13.919
   688G11  C0EV46805   6.856   7.566  13.655
   688G11  C0FT46806   6.859   7.562  13.511
   688G11  H01E46807   6.815   7.490  13.443
   688G11  C0EU46808   6.891   7.686  13.719
   688G11  C0ET46809   6.956   7.793  13.650
   688G11  C0EI46810   7.002   7.908  13.704
   688G11  C0F146811   6.960   7.931  13.840
   688G11  C0F046812   6.886   7.834  13.904
   688G11  C0EH46813   7.077   8.001  13.628
   688G11  C0EG46814   7.109   7.985  13.486
   688G11  C0EJ46815   7.109   8.117  13.695
   688G11  C0F346816   7.069   8.143  13.830
   688G11  C0EK46817   7.176   8.218  13.629
   688G11  C0EL46818   7.217   8.204  13.494
   688G11  C0EM46819   7.302   8.314  13.447
   688G11  C0EN46820   7.332   8.421  13.526
   688G11  C07I46821   7.405   8.513  13.460
   688G11  C07446822   7.445   8.631  13.520
   688G11  C07346823   7.537   8.704  13.454
   688G11  C07246824   7.588   8.814  13.524
   688G11  C07546825   7.401   8.651  13.647
   688G11  C07646826   7.321   8.557  13.715
   688G11  C07846827   7.289   8.569  13.847
   688G11  C07G46828   7.450   8.755  13.718
   688G11  C07046829   7.413   8.776  13.848
   688G11  C07Z46830   7.441   8.467  13.338
   688G11  C07746831   7.280   8.441  13.649
   688G11  C0EO46832   7.215   8.332  13.707
   688G11  C0F446833   7.176   8.355  13.840
   688G11  C0EQ46834   6.981   7.779  13.516
   688G11  C0FQ46835   6.707   7.369  13.933
   688G11  C0GI46836   6.671   7.398  14.068
   688G11  H01L46837   6.620   7.319  14.122
   688G11  C0EZ46838   6.854   7.709  13.846
   688G11  C0GG46839   6.673   7.531  14.118
   688G11  C0GF46840   6.612   7.575  14.235
   688G11  H01M46841   6.552   7.504  14.290
   688G11  C0GE46842   6.622   7.698  14.290
   688G11  H01K46843   6.572   7.710  14.385
   688G11  O00J46844   6.666   7.947  14.403
   688G11  C0GA46845   6.711   8.064  14.470
   688G11  C0G946846   6.659   8.088  14.593
   688G11  H01H46847   6.582   8.023  14.631
   688G11  C0G846848   6.700   8.191  14.680
   688G11  C0G746849   6.670   8.214  14.815
   688G11  H01I46850   6.613   8.134  14.861
   688G11  O00I46851   6.708   8.315  14.894
   688G11  C0G646852   6.797   8.402  14.833
   688G11  H01J46853   6.831   8.485  14.892
   688G11  C02D46854   6.846   8.384  14.700
   688G11  C02C46855   6.944   8.472  14.643
   688G11  C01746856   7.011   8.571  14.719
   688G11  C01646857   7.102   8.665  14.655
   688G11  O00146858   6.992   8.600  14.855
   688G11  C01846859   7.078   8.673  14.932
   688G11  C00946860   7.158   8.769  14.869
   688G11  C00846861   7.240   8.873  14.924
   688G11  C00746862   7.273   8.917  15.058
   688G11  C00646863   7.226   8.852  15.171
   688G11  C00546864   7.265   8.893  15.304
   688G11  C00446865   7.364   8.987  15.360
   688G11  C00346866   7.447   9.088  15.287
   688G11  C00246867   7.542   9.165  15.361
   688G11  C00P46868   7.615   9.268  15.298
   688G11  C00O46869   7.717   9.336  15.362
   688G11  C00N46870   7.793   9.436  15.298
   688G11  C01046871   7.899   9.501  15.368
   688G11  C01146872   7.971   9.600  15.303
   688G11  C01Q46873   8.075   9.663  15.368
   688G11  C01U46874   8.109   9.624  15.502
   688G11  C01246875   8.032   9.517  15.563
   688G11  H00046876   8.050   9.481  15.663
   688G11  C01V46877   8.196   9.707  15.574
   688G11  H00746878   8.217   9.685  15.677
   688G11  O00546879   8.262   9.816  15.521
   688G11  C01W46880   8.228   9.851  15.391
   688G11  C03146881   8.298   9.963  15.330
   688G11  C03246882   8.269  10.001  15.199
   688G11  H00A46883   8.331  10.081  15.161
   688G11  C03346884   8.179   9.924  15.124
   688G11  H00B46885   8.169   9.964  15.024
   688G11  C01O46886   8.113   9.811  15.178
   688G11  C01N46887   8.025   9.734  15.108
   688G11  C01M46888   8.010   9.753  14.962
   688G11  C01L46889   8.083   9.787  14.833
   688G11  C01K46890   7.994   9.763  14.725
   688G11  C01Y46891   8.033   9.746  14.590
   688G11  C02I46892   8.163   9.778  14.556
   688G11  C02N46893   8.194   9.774  14.418
   688G11  C02M46894   8.331   9.807  14.385
   688G11  C02L46895   8.422   9.854  14.479
   688G11  C02K46896   8.391   9.851  14.618
   688G11  C02U46897   8.493   9.877  14.707
   688G11  C02V46898   8.612   9.930  14.662
   688G11  C03H46899   8.707   9.979  14.754
   688G11  H00C46900   8.685   9.982  14.859
   688G11  C02W46901   8.477   9.836  14.835
   688G11  C02X46902   8.349   9.798  14.869
   688G11  C02Y46903   8.373   9.737  14.994
   688G11  H00846904   8.302   9.689  15.060
   688G11  C02Z46905   8.515   9.751  15.033
   688G11  O00446906   8.562   9.741  15.141
   688G11  O00346907   8.573   9.808  14.926
   688G11  C02J46908   8.256   9.812  14.657
   688G11  C01Z46909   7.941   9.682  14.502
   688G11  C02046910   7.832   9.612  14.562
   688G11  C01I46911   7.809   9.618  14.695
   688G11  C01H46912   7.728   9.528  14.764
   688G11  C00K46913   7.729   9.516  14.902
   688G11  C01S46914   7.813   9.595  14.982
   688G11  C01446915   7.842   9.570  15.108
   688G11  C00J46916   7.661   9.413  14.958
   688G11  C00I46917   7.586   9.332  14.884
   688G11  C00H46918   7.581   9.342  14.745
   688G11  C00G46919   7.516   9.254  14.665
   688G11  C00S46920   7.514   9.233  14.945
   688G11  C00T46921   7.438   9.161  14.859
   688G11  C00U46922   7.362   9.062  14.920
   688G11  C00R46923   7.517   9.209  15.084
   688G11  C00L46924   7.673   9.392  15.095
   688G11  C02846925   7.659   9.440  14.685
   688G11  C02346926   7.677   9.437  14.548
   688G11  C02446927   7.612   9.342  14.473
   688G11  C02146928   7.757   9.529  14.487
   688G11  C02246929   7.777   9.524  14.348
   688G11  C02H46930   7.715   9.424  14.273
   688G11  C03046931   7.743   9.408  14.137
   688G11  C03446932   7.832   9.490  14.080
   688G11  C02P46933   7.876   9.603  14.292
   688G11  C02B46934   7.965   9.677  14.370
   688G11  C01J46935   7.878   9.710  14.777
   688G11  C01X46936   8.225   9.800  14.795
   688G11  C01T46937   7.888   9.695  14.916
   688G11  H00946938   8.381  10.017  15.375
   688G11  C01P46939   8.140   9.773  15.311
   688G11  C01R46940   7.946   9.635  15.171
   688G11  C00Z46941   7.929   9.457  15.497
   688G11  O00046942   7.862   9.357  15.558
   688G11  C00M46943   7.764   9.469  15.166
   688G11  C00Y46944   7.752   9.303  15.494
   688G11  C01346945   7.675   9.201  15.553
   688G11  H00146946   7.714   9.174  15.650
   688G11  C00Q46947   7.600   9.291  15.160
   688G11  C00146948   7.570   9.136  15.495
   688G11  C00046949   7.494   9.042  15.560
   688G11  H00646950   7.530   9.013  15.657
   688G11  C00W46951   7.440   9.112  15.147
   688G11  C01G46952   7.388   8.969  15.496
   688G11  H00546953   7.346   8.890  15.556
   688G11  C01C46954   7.187   8.803  15.389
   688G11  H00246955   7.178   8.795  15.496
   688G11  C01B46956   7.099   8.725  15.308
   688G11  C01D46957   7.006   8.630  15.356
   688G11  H00346958   6.990   8.609  15.461
   688G11  C01E46959   6.948   8.557  15.259
   688G11  H00446960   6.879   8.480  15.290
   688G11  O00246961   6.969   8.567  15.122
   688G11  C01A46962   7.127   8.753  15.172
   688G11  C00V46963   7.362   9.030  15.055
   688G11  C01946964   7.064   8.663  15.073
   688G11  C02E46965   6.982   8.459  14.508
   688G11  C0FX46966   6.932   8.353  14.434
   688G11  C0FW46967   6.974   8.328  14.300
   688G11  C0GB46968   6.846   8.259  14.488
   688G11  C0G346969   7.067   8.548  14.444
   688G11  C07H46970   7.096   8.538  14.307
   688G11  C0GC46971   6.803   8.278  14.621
   688G11  C0G246972   6.801   8.153  14.415
   688G11  C0G146973   6.841   8.126  14.283
   688G11  C0FB46974   6.831   7.864  14.031
   688G11  C0F246975   6.989   8.049  13.901
   688G11  C0FY46976   6.927   8.217  14.227
   688G11  C0F546977   7.098   8.257  13.900
   688G11  C0FV46978   7.053   8.420  14.234
   688G11  C07946979   7.214   8.470  13.912
   688G11  C07A46980   7.327   8.686  13.911
   688G11  C06Y46981   7.421   8.907  14.049
   688G11  C07D46982   7.178   8.630  14.238
   688G11  C01F46983   7.124   8.652  14.518
   688G11  C00A46984   7.165   8.768  14.727
   688G11  C00X46985   7.288   8.970  14.846
   688G11  C00F46986   7.439   9.158  14.726
   688G11  C02946987   7.332   8.951  14.449
   688G11  C02546988   7.530   9.249  14.532
   688G11  C06U46989   7.442   9.030  14.250
   688G11  C02A46990   7.631   9.334  14.333
   688G11  C05Y46991   7.693   9.303  14.062
   688G11  C05Z46992   7.737   9.280  13.935
   688G11  C06046993   7.840   9.353  13.881
   688G11  C06246994   7.895   9.320  13.755
   688G11  C06T46995   7.476   9.014  14.117
   688G11  C06A46996   7.693   9.168  13.866
   688G11  C06Z46997   7.463   8.885  13.915
   688G11  C06Q46998   7.542   8.845  13.651
   688G11  C06846999   7.747   9.136  13.738
   688G11  C06747000   7.849   9.212  13.683
   688G11  C06347001   7.988   9.114  13.300
   688G11  C06C47002   8.044   9.064  13.181
   688G11  C06D47003   8.154   9.123  13.125
   688G11  C06E47004   8.233   9.074  13.019
   688G11  C07Q47005   8.191   8.961  12.963
   688G11  C07P47006   8.082   8.891  13.017
   688G11  C07T47007   8.037   8.784  12.949
   688G11  C07U47008   7.924   8.719  12.992
   688G11  C07V47009   7.883   8.607  12.930
   688G11  C08447010   7.956   8.556  12.817
   688G11  C08C47011   8.066   8.621  12.778
   688G11  C08B47012   8.134   8.569  12.672
   688G11  C08A47013   8.240   8.642  12.623
   688G11  C08947014   8.284   8.757  12.677
   688G11  C08847015   8.399   8.822  12.622
   688G11  C08747016   8.445   8.936  12.689
   688G11  C08647017   8.376   8.983  12.803
   688G11  C08X47018   8.471   8.770  12.514
   688G11  C08T47019   8.433   8.632  12.468
   688G11  C08D47020   8.215   8.804  12.791
   688G11  C08U47021   8.319   8.581  12.529
   688G11  C08V47022   8.292   8.456  12.478
   688G11  C0CY47023   8.176   8.387  12.516
   688G11  C0CX47024   8.155   8.269  12.459
   688G11  C0CW47025   8.033   8.206  12.495
   688G11  C0CV47026   7.953   8.262  12.592
   688G11  C0D447027   7.992   8.384  12.651
   688G11  C0CU47028   7.844   8.196  12.638
   688G11  C0CT47029   7.810   8.068  12.586
   688G11  C0CS47030   7.894   8.008  12.493
   688G11  C0D647031   7.778   8.248  12.747
   688G11  C0EC47032   7.808   8.366  12.805
   688G11  C07X47033   7.733   8.419  12.912
   688G11  C0DL47034   7.669   8.182  12.791
   688G11  C0DK47035   7.591   8.229  12.891
   688G11  C0DN47036   7.493   8.139  12.917
   688G11  C0D847037   7.622   8.060  12.744
   688G11  C08W47038   8.383   8.415  12.386
   688G11  C0CQ47039   8.354   8.290  12.320
   688G11  C09347040   8.102   8.447  12.608
   688G11  C09247041   7.918   8.434  12.755
   688G11  C08547042   8.104   8.740  12.838
   688G11  C07S47043   8.256   8.920  12.850
   688G11  C06F47044   8.348   9.143  12.969
   688G11  C07O47045   8.010   8.945  13.124
   688G11  C07N47046   7.903   8.877  13.167
   688G11  C05D47047   8.191   9.244  13.181
   688G11  C05C47048   8.290   9.319  13.117
   688G11  C05N47049   8.322   9.420  13.205
   688G11  C05M47050   8.185   9.445  13.557
   688G11  C05I47051   8.011   9.393  13.711
   688G11  C06147052   7.881   9.460  13.950
   688G11  C02Q47053   7.894   9.582  14.159
   688G11  C02O47054   8.092   9.731  14.329
   688G11  C03Q47055   8.161   9.678  13.975
   688G11  C03O47056   8.382   9.691  13.892
   688G11  C03L47057   8.677   9.826  14.029
   688G11  C02S47058   8.379   9.785  14.247
   688G11  C02T47059   8.553   9.891  14.437
   688G11  C03K47060   8.779   9.871  14.127
   688G11  C03I47061   8.644   9.938  14.526
   688G11  C03G47062   8.829  10.027  14.716
   688G11  H00D47063   8.903  10.067  14.784
   688G11  C03J47064   8.958   9.972  14.331
   688G11  C03W47065   9.230  10.028  14.286
   688G11  C04I47066   9.213   9.946  14.070
   688G11  C04K47067   9.298   9.869  13.818
   688G11  C04N47068   9.326   9.830  13.689
   688G11  C04X47069   9.268   9.735  13.469
   688G11  C05047070   9.207   9.649  13.241
   688G11  C05W47071   8.936   9.691  13.320
   688G11  C05S47072   8.943   9.428  12.917
   688G11  C05R47073   8.717   9.582  13.143
   688G11  C05O47074   8.446   9.488  13.191
   688G11  C05B47075   8.375   9.267  13.021
   688G11  C05A47076   8.714   9.345  12.899
   688G11  C07R47077   8.429   9.094  12.868
   688G11  C08N47078   8.569   8.999  12.645
   688G11  C08M47079   8.625   8.957  12.518
   688G11  C08L47080   8.740   9.020  12.470
   688G11  C09147081   8.852   9.323  12.850
   688G11  C09K47082   9.112   9.177  12.664
   688G11  H00M47083   9.168   9.148  12.751
   688G11  C08K47084   8.800   9.112  12.557
   688G11  C09J47085   9.145   9.142  12.527
   688G11  C09I47086   9.239   9.057  12.455
   688G11  C09L47087   9.376   9.026  12.481
   688G11  H00N47088   9.432   9.064  12.565
   688G11  C09Q47089   9.445   8.955  12.389
   688G11  H00O47090   9.553   8.949  12.389
   688G11  O00B47091   9.377   8.894  12.282
   688G11  C09G47092   9.240   8.906  12.270
   688G11  C09F47093   9.184   8.820  12.173
   688G11  O00A47094   9.285   8.744  12.112
   688G11  C09P47095   9.246   8.657  12.010
   688G11  H00P47096   9.306   8.666  11.921
   688G11  C09O47097   9.116   8.601  12.007
   688G11  C09D47098   9.010   8.674  12.068
   688G11  C09C47099   8.872   8.640  12.069
   688G11  C09N47100   8.808   8.510  12.051
   688G11  C09T47101   8.875   8.390  12.060
   688G11  C09S47102   8.995   8.378  11.984
   688G11  C0CP47103   9.008   8.242  11.973
   688G11  C0CN47104   8.902   8.168  12.030
   688G11  C0CO47105   8.925   8.027  12.032
   688G11  H01447106   8.872   7.956  12.094
   688G11  C0CZ47107   9.018   7.982  11.936
   688G11  H01547108   9.028   7.875  11.925
   688G11  C0D047109   9.096   8.059  11.845
   688G11  C0G547110   9.179   8.020  11.734
   688G11  H01F47111   9.175   7.917  11.701
   688G11  C0G447112   9.257   8.111  11.668
   688G11  H01G47113   9.303   8.062  11.584
   688G11  O00H47114   9.271   8.248  11.691
   688G11  C0D247115   9.184   8.285  11.792
   688G11  C09V47116   9.186   8.419  11.844
   688G11  H00Q47117   9.265   8.481  11.804
   688G11  C0D147118   9.104   8.198  11.875
   688G11  C09R47119   9.092   8.472  11.942
   688G11  C09H47120   9.167   9.000  12.344
   688G11  C09E47121   9.043   8.795  12.146
   688G11  C09B47122   8.775   8.725  12.102
   688G11  C08Z47123   8.792   8.970  12.345
   688G11  C08O47124   8.571   8.847  12.447
   688G11  C09A47125   8.646   8.663  12.109
   688G11  C08S47126   8.472   8.522  12.377
   688G11  C09947127   8.665   8.530  12.078
   688G11  C09U47128   8.805   8.263  12.071
   688G11  C0BO47129   8.475   7.917  12.041
   688G11  C0CL47130   8.449   8.239  12.224
   688G11  C0D347131   8.239   8.219  12.365
   688G11  C0D547132   8.008   8.075  12.446
   688G11  C0BR47133   8.286   7.906  12.184
   688G11  C0BQ47134   8.373   7.842  12.099
   688G11  C0BL47135   8.545   7.720  11.927
   688G11  C0AF47136   8.534   7.446  11.900
   688G11  C0BH47137   8.245   7.495  12.119
   688G11  C0BG47138   8.140   7.425  12.166
   688G11  C0BD47139   8.243   7.216  12.100
   688G11  C0AG47140   8.531   7.309  11.900
   688G11  C0AI47141   8.601   7.118  11.783
   688G11  C0AV47142   8.539   6.873  11.688
   688G11  C0BB47143   8.350   6.878  12.007
   688G11  O00C47144   8.372   6.687  11.706
   688G11  C0BC47145   8.246   6.791  12.039
   688G11  C0B947146   8.241   7.073  12.090
   688G11  O00E47147   7.899   7.005  12.187
   688G11  C0CA47148   7.794   7.061  12.258
   688G11  O00F47149   7.698   6.998  12.290
   688G11  C0BF47150   8.135   7.285  12.147
   688G11  C0C547151   7.806   7.204  12.280
   688G11  C0C447152   7.696   7.268  12.345
   688G11  H01147153   7.612   7.215  12.387
   688G11  C0C847154   8.036   7.489  12.228
   688G11  C0C247155   7.712   7.406  12.373
   688G11  C0C347156   7.617   7.486  12.438
   688G11  C0DY47157   7.483   7.452  12.465
   688G11  H01647158   7.432   7.358  12.451
   688G11  C0DX47159   7.431   7.557  12.542
   688G11  C0DW47160   7.336   7.513  12.630
   688G11  C0BY47161   7.951   7.690  12.329
   688G11  C0DB47162   7.636   7.615  12.484
   688G11  C0CC47163   7.874   7.881  12.454
   688G11  C0D747164   7.701   7.997  12.637
   688G11  C0DZ47165   7.530   7.664  12.557
   688G11  C0DM47166   7.501   8.035  12.818
   688G11  C0DQ47167   7.347   7.709  12.796
   688G11  C0DV47168   7.304   7.582  12.749
   688G11  C0E047169   7.259   7.389  12.625
   688G11  C0FO47170   6.953   7.347  12.795
   688G11  C0E347171   7.158   7.359  12.517
   688G11  H01747172   7.166   7.399  12.416
   688G11  C0GV47173   6.852   7.316  12.704
   688G11  C0ES47174   6.928   7.438  12.902
   688G11  C0GQ47175   6.560   7.463  12.862
   688G11  C0FJ47176   6.583   7.625  13.197
   688G11  C0ED47177   6.857   7.621  13.115
   688G11  C0ER47178   6.929   7.672  13.450
   688G11  C0EP47179   7.047   7.868  13.435
   688G11  C0E647180   7.097   7.732  13.076
   688G11  C0DE47181   7.263   7.982  13.051
   688G11  C0EA47182   7.176   8.086  13.413
   688G11  C0DF47183   7.292   8.122  13.060
   688G11  C08047184   7.374   8.347  13.324
   688G11  C0DO47185   7.411   8.179  13.016
   688G11  C0DJ47186   7.625   8.349  12.957
   688G11  C07K47187   7.537   8.550  13.263
   688G11  C07W47188   7.773   8.537  12.975
   688G11  C08347189   7.853   8.760  13.108
   688G11  C07J47190   7.586   8.657  13.332
   688G11  C06O47191   7.691   8.886  13.468
   688G11  C06M47192   7.840   8.921  13.288
   698G11  C07147193   5.857   9.323  12.834
   698G11  C07L47194   5.918   9.449  12.830
   698G11  C07M47195   5.905   9.541  12.933
   698G11  C07Y47196   5.953   9.670  12.922
   698G11  C08147197   6.032   9.705  12.811
   698G11  C08247198   6.075   9.837  12.807
   698G11  C0DI47199   6.132   9.912  12.698
   698G11  C0DH47200   6.178   9.874  12.573
   698G11  C0DG47201   6.187   9.992  12.489
   698G11  C0E947202   6.273  10.029  12.377
   698G11  C0E847203   6.318  10.169  12.412
   698G11  C0E747204   6.418  10.261  12.342
   698G11  C0EB47205   6.485  10.211  12.221
   698G11  C0EF47206   6.603  10.265  12.157
   698G11  C0EE47207   6.708  10.348  12.210
   698G11  C0FD47208   6.841  10.312  12.187
   698G11  C0FE47209   6.888  10.189  12.133
   698G11  H01B47210   6.817  10.117  12.094
   698G11  C0FF47211   7.021  10.164  12.099
   698G11  H01A47212   7.033  10.077  12.036
   698G11  C0FG47213   7.112  10.259  12.133
   698G11  H01847214   7.214  10.249  12.100
   698G11  C0FH47215   7.083  10.374  12.213
   698G11  C0FI47216   7.175  10.464  12.256
   698G11  H01947217   7.274  10.441  12.218
   698G11  O00K47218   7.147  10.570  12.340
   698G11  C0FL47219   7.013  10.594  12.357
   698G11  C0FK47220   6.909  10.511  12.309
   698G11  C0FM47221   6.772  10.542  12.330
   698G11  C0FN47222   6.744  10.662  12.394
   698G11  C0FP47223   6.850  10.730  12.459
   698G11  C0GO47224   6.823  10.828  12.557
   698G11  C0GN47225   6.915  10.881  12.647
   698G11  C0GR47226   7.049  10.838  12.628
   698G11  C0GS47227   7.147  10.883  12.721
   698G11  H01Q47228   7.250  10.862  12.697
   698G11  C0GT47229   7.109  10.972  12.822
   698G11  H01O47230   7.182  11.005  12.893
   698G11  C0GU47231   6.974  11.009  12.842
   698G11  H01P47232   6.949  11.084  12.915
   698G11  O00L47233   7.079  10.751  12.526
   698G11  C0GM47234   6.873  10.963  12.757
   698G11  C0GL47235   6.736  10.998  12.762
   698G11  H01R47236   6.695  11.052  12.847
   698G11  C0GK47237   6.649  10.966  12.651
   698G11  C0GP47238   6.508  10.977  12.629
   698G11  C0E247239   6.485  10.913  12.502
   698G11  C0E147240   6.350  10.868  12.495
   698G11  C0DU47241   6.323  10.725  12.498
   698G11  C0DT47242   6.379  10.619  12.430
   698G11  C0E447243   6.510  10.616  12.384
   698G11  C0E547244   6.542  10.489  12.342
   698G11  C0DS47245   6.340  10.483  12.442
   698G11  C0DR47246   6.257  10.466  12.554
   698G11  C0DD47247   6.232  10.343  12.607
   698G11  C0DC47248   6.172  10.373  12.742
   698G11  C0DP47249   6.158  10.512  12.759
   698G11  C0DA47250   6.094  10.576  12.871
   698G11  C0D947251   6.030  10.525  13.004
   698G11  C0CR47252   5.985  10.618  13.102
   698G11  C0C047253   5.989  10.755  13.089
   698G11  C0BZ47254   5.939  10.852  13.176
   698G11  C0C147255   5.959  10.988  13.146
   698G11  C0C747256   5.925  11.082  13.239
   698G11  C0C647257   5.953  11.220  13.220
   698G11  C0C947258   5.934  11.307  13.323
   698G11  C0B847259   5.995  11.437  13.314
   698G11  C0B747260   5.979  11.535  13.409
   698G11  C0B647261   6.037  11.668  13.430
   698G11  C0B547262   6.181  11.679  13.438
   698G11  H00Z47263   6.254  11.609  13.402
   698G11  C0B447264   6.206  11.783  13.544
   698G11  H01047265   6.298  11.809  13.596
   698G11  C0B347266   6.082  11.843  13.586
   698G11  C0AP47267   6.018  11.868  13.720
   698G11  C0AQ47268   5.903  11.791  13.721
   698G11  C0AR47269   5.850  11.747  13.838
   698G11  C0AS47270   5.761  11.642  13.821
   698G11  C0AT47271   5.766  11.553  13.714
   698G11  C0BA47272   5.827  11.595  13.598
   698G11  C0AU47273   5.728  11.420  13.732
   698G11  C0BE47274   5.760  11.328  13.631
   698G11  C0BI47275   5.736  11.193  13.658
   698G11  C0BJ47276   5.671  11.151  13.775
   698G11  C0BK47277   5.648  11.016  13.801
   698G11  C0BW47278   5.686  10.919  13.711
   698G11  C0BV47279   5.748  10.957  13.594
   698G11  C0BU47280   5.786  10.864  13.505
   698G11  C0BX47281   5.844  10.906  13.384
   698G11  C0BT47282   5.769  10.730  13.529
   698G11  C0CD47283   5.812  10.636  13.436
   698G11  C0CB47284   5.876  10.674  13.320
   698G11  C0CE47285   5.802  10.498  13.464
   698G11  C0CK47286   5.736  10.455  13.581
   698G11  C0BS47287   5.685  10.546  13.670
   698G11  C0CJ47288   5.613  10.510  13.787
   698G11  C0BP47289   5.567  10.607  13.875
   698G11  C0CI47290   5.506  10.569  13.998
   698G11  C0CH47291   5.464  10.681  14.083
   698G11  H01247292   5.396  10.654  14.162
   698G11  C0BN47293   5.487  10.816  14.056
   698G11  C0CG47294   5.453  10.910  14.151
   698G11  C0CF47295   5.377  10.884  14.268
   698G11  H01347296   5.312  10.797  14.276
   698G11  O00G47297   5.363  10.971  14.366
   698G11  C0AA47298   5.423  11.092  14.356
   698G11  C0A947299   5.415  11.176  14.473
   698G11  H00U47300   5.371  11.130  14.561
   698G11  C0A847301   5.477  11.299  14.472
   698G11  H00V47302   5.457  11.349  14.566
   698G11  C0A747303   5.532  11.352  14.355
   698G11  C0A647304   5.534  11.270  14.231
   698G11  C0A547305   5.586  11.303  14.112
   698G11  C0A447306   5.625  11.439  14.085
   698G11  C0A347307   5.656  11.562  14.151
   698G11  C0A247308   5.660  11.572  14.291
   698G11  C0A147309   5.679  11.702  14.353
   698G11  C0A047310   5.741  11.829  14.314
   698G11  C09Z47311   5.730  11.931  14.413
   698G11  C09Y47312   5.803  12.052  14.394
   698G11  H00Y47313   5.792  12.137  14.459
   698G11  C09X47314   5.903  12.052  14.284
   698G11  C09W47315   5.985  12.167  14.282
   698G11  H00R47316   5.977  12.237  14.364
   698G11  C0AX47317   6.083  12.197  14.183
   698G11  H00S47318   6.147  12.283  14.189
   698G11  C0AW47319   6.080  12.103  14.080
   698G11  H00T47320   6.151  12.116  14.000
   698G11  C0AN47321   5.990  11.991  14.073
   698G11  C0AO47322   5.975  11.914  13.961
   698G11  C0AM47323   5.909  11.963  14.181
   698G11  C0B247324   5.658  11.921  14.534
   698G11  O00D47325   5.635  12.013  14.609
   698G11  C0B147326   5.600  11.799  14.571
   698G11  H00W47327   5.529  11.783  14.652
   698G11  C0AL47328   5.821  11.849  14.194
   698G11  C0AK47329   5.807  11.773  14.078
   698G11  C0B047330   5.610  11.696  14.475
   698G11  C0AZ47331   5.550  11.566  14.484
   698G11  H00X47332   5.480  11.545  14.563
   698G11  C0AJ47333   5.724  11.654  14.068
   698G11  C0AH47334   5.655  11.470  13.953
   698G11  C0AE47335   5.598  11.210  14.005
   698G11  C0AD47336   5.566  11.077  14.023
   698G11  C0AY47337   5.585  11.488  14.375
   698G11  C0AB47338   5.484  11.136  14.237
   698G11  C0AC47339   5.499  11.040  14.136
   698G11  C0BM47340   5.558  10.848  13.945
   698G11  C0CM47341   5.483  10.433  14.032
   698G11  C09M47342   5.489  10.342  13.920
   698G11  C09847343   5.403  10.232  13.915
   698G11  C08R47344   5.403  10.103  13.849
   698G11  C08Q47345   5.296  10.020  13.881
   698G11  C08P47346   5.274   9.878  13.892
   698G11  C08Y47347   5.176   9.834  13.984
   698G11  C09747348   5.122   9.922  14.075
   698G11  C09647349   5.106   9.865  14.196
   698G11  C09047350   5.130   9.727  14.180
   698G11  C09547351   5.083   9.623  14.263
   698G11  C09447352   5.084   9.488  14.219
   698G11  C08J47353   5.154   9.407  14.127
   698G11  C08I47354   5.065   9.306  14.081
   698G11  C08H47355   5.095   9.270  13.941
   698G11  C08G47356   5.188   9.374  13.896
   698G11  C08F47357   5.280   9.401  13.784
   698G11  C08E47358   5.319   9.298  13.693
   698G11  C05947359   5.282   9.160  13.693
   698G11  C05847360   5.335   9.069  13.601
   698G11  C05747361   5.289   8.935  13.586
   698G11  C05647362   5.193   8.890  13.680
   698G11  C05547363   5.155   8.963  13.785
   698G11  C05447364   5.035   8.911  13.844
   698G11  C05347365   4.983   8.815  13.746
   698G11  C05247366   4.849   8.768  13.731
   698G11  C05147367   4.740   8.810  13.822
   698G11  C05U47368   4.745   8.907  13.928
   698G11  C05T47369   4.843   9.004  13.965
   698G11  C06K47370   4.809   9.045  14.094
   698G11  H00J47371   4.882   9.079  14.166
   698G11  C06L47372   4.681   8.993  14.133
   698G11  H00I47373   4.629   9.019  14.224
   698G11  C05V47374   4.643   8.910  14.025
   698G11  C06J47375   4.521   8.847  14.012
   698G11  H00K47376   4.445   8.854  14.089
   698G11  C05X47377   4.495   8.781  13.887
   698G11  C06I47378   4.369   8.736  13.841
   698G11  H00L47379   4.288   8.766  13.906
   698G11  C04Z47380   4.346   8.662  13.720
   698G11  C06H47381   4.214   8.622  13.684
   698G11  H00H47382   4.132   8.644  13.752
   698G11  C04Y47383   4.185   8.563  13.559
   698G11  C06G47384   4.051   8.522  13.529
   698G11  O00947385   3.955   8.546  13.593
   698G11  O00847386   4.029   8.469  13.405
   698G11  C04P47387   4.133   8.445  13.320
   698G11  C04J47388   4.113   8.395  13.184
   698G11  C04Q47389   3.993   8.374  13.121
   698G11  H00E47390   3.909   8.406  13.180
   698G11  C04M47391   3.984   8.306  12.994
   698G11  C04R47392   3.863   8.264  12.931
   698G11  H00F47393   3.775   8.285  12.990
   698G11  C04S47394   3.869   8.194  12.814
   698G11  H00G47395   3.778   8.158  12.769
   698G11  O00747396   3.988   8.168  12.745
   698G11  C03V47397   4.101   8.211  12.803
   698G11  C03U47398   4.217   8.196  12.731
   698G11  O00647399   4.208   8.142  12.609
   698G11  C03F47400   4.317   8.138  12.530
   698G11  C03E47401   4.446   8.184  12.573
   698G11  C03D47402   4.458   8.230  12.700
   698G11  C03C47403   4.583   8.269  12.750
   698G11  C03B47404   4.690   8.243  12.659
   698G11  C03A47405   4.824   8.275  12.699
   698G11  C03947406   4.840   8.338  12.831
   698G11  C03847407   4.983   8.370  12.825
   698G11  C03747408   5.026   8.308  12.705
   698G11  C03647409   5.157   8.308  12.674
   698G11  C02R47410   5.219   8.272  12.554
   698G11  C03547411   5.344   8.339  12.568
   698G11  C03R47412   5.361   8.409  12.685
   698G11  C03S47413   5.434   8.531  12.690
   698G11  C04947414   5.418   8.605  12.802
   698G11  C04847415   5.307   8.576  12.876
   698G11  C03P47416   5.201   8.482  12.846
   698G11  C04747417   5.302   8.640  13.004
   698G11  C04647418   5.222   8.614  13.112
   698G11  C04547419   5.109   8.540  13.129
   698G11  C03T47420   5.035   8.472  13.033
   698G11  C04447421   4.918   8.427  13.096
   698G11  C04347422   4.930   8.445  13.234
   698G11  C04247423   4.807   8.478  13.288
   698G11  C04147424   4.718   8.441  13.178
   698G11  C04047425   4.576   8.419  13.195
   698G11  C03Z47426   4.476   8.374  13.098
   698G11  C04H47427   4.358   8.387  13.166
   698G11  C04G47428   4.374   8.439  13.289
   698G11  C03N47429   4.480   8.334  12.964
   698G11  C03Y47430   4.352   8.295  12.910
   698G11  C03X47431   4.234   8.306  12.985
   698G11  C04F47432   4.507   8.461  13.315
   698G11  C04E47433   4.540   8.524  13.436
   698G11  C04O47434   4.428   8.564  13.520
   698G11  C04D47435   4.666   8.554  13.488
   698G11  C04V47436   4.684   8.637  13.602
   698G11  C04W47437   4.578   8.681  13.684
   698G11  C04C47438   4.791   8.534  13.429
   698G11  C04L47439   4.885   8.599  13.518
   698G11  C04U47440   5.024   8.616  13.486
   698G11  C05Q47441   5.108   8.720  13.543
   698G11  C05P47442   5.215   8.747  13.462
   698G11  C04T47443   5.201   8.678  13.345
   698G11  C04B47444   5.085   8.600  13.357
   698G11  C03M47445   4.783   8.398  13.055
   698G11  C04A47446   5.044   8.525  13.249
   698G11  C05H47447   5.272   8.685  13.221
   698G11  C05G47448   5.373   8.767  13.171
   698G11  C05F47449   5.448   8.855  13.247
   698G11  C05E47450   5.513   8.965  13.188
   698G11  C05L47451   5.581   8.998  13.063
   698G11  C05K47452   5.581   8.909  12.957
   698G11  C05J47453   5.501   8.791  12.938
   698G11  C06647454   5.662   8.944  12.845
   698G11  C06547455   5.735   9.062  12.843
   698G11  C06447456   5.726   9.155  12.952
   698G11  C06N47457   5.804   9.106  12.732
   698G11  C06947458   5.808   9.024  12.618
   698G11  C06P47459   5.871   9.064  12.502
   698G11  C06R47460   5.879   8.978  12.390
   698G11  C06B47461   5.810   8.857  12.389
   698G11  C06S47462   5.814   8.782  12.270
   698G11  C02G47463   5.731   8.672  12.265
   698G11  C02F47464   5.724   8.597  12.147
   698G11  C02747465   5.794   8.641  12.035
   698G11  C02647466   5.784   8.567  11.913
   698G11  C00E47467   5.859   8.607  11.804
   698G11  C00D47468   5.840   8.541  11.683
   698G11  C00C47469   5.890   8.594  11.569
   698G11  C00B47470   5.969   8.705  11.567
   698G11  C01547471   5.989   8.773  11.685
   698G11  C07F47472   6.054   8.898  11.685
   698G11  C07E47473   6.061   8.973  11.803
   698G11  C06W47474   6.006   8.922  11.922
   698G11  C06V47475   5.937   8.799  11.922
   698G11  C06X47476   6.011   8.994  12.041
   698G11  C07B47477   6.067   9.117  12.038
   698G11  C07C47478   6.118   9.173  11.916
   698G11  C0FU47479   6.166   9.305  11.916
   698G11  C0F747480   6.207   9.363  11.798
   698G11  C0F647481   6.240   9.499  11.791
   698G11  C0F847482   6.283   9.553  11.669
   698G11  C0F947483   6.329   9.685  11.667
   698G11  C0FA47484   6.377   9.732  11.548
   698G11  C0FZ47485   6.364   9.663  11.429
   698G11  C0G047486   6.398   9.716  11.305
   698G11  C0GD47487   6.469   9.841  11.298
   698G11  C0FC47488   6.498   9.904  11.420
   698G11  C0GH47489   6.579  10.023  11.422
   698G11  C0EY47490   6.602  10.087  11.540
   698G11  C0EX47491   6.697  10.190  11.549
   698G11  C0EW47492   6.723  10.254  11.674
   698G11  C0FR47493   6.832  10.345  11.681
   698G11  H01D47494   6.843  10.399  11.773
   698G11  C0FS47495   6.913  10.382  11.569
   698G11  H01C47496   6.983  10.463  11.581
   698G11  C0GJ47497   6.882  10.327  11.450
   698G11  H01N47498   6.941  10.381  11.378
   698G11  C0EV47499   6.649  10.214  11.785
   698G11  C0FT47500   6.680  10.272  11.911
   698G11  H01E47501   6.748  10.351  11.938
   698G11  C0EU47502   6.561  10.106  11.778
   698G11  C0ET47503   6.492  10.059  11.893
   698G11  C0EI47504   6.420   9.944  11.906
   698G11  C0F147505   6.404   9.877  11.785
   698G11  C0F047506   6.464   9.922  11.660
   698G11  C0EH47507   6.364   9.906  12.028
   698G11  C0EG47508   6.371   9.986  12.145
   698G11  C0EJ47509   6.295   9.782  12.029
   698G11  C0F347510   6.291   9.701  11.909
   698G11  C0EK47511   6.253   9.724  12.150
   698G11  C0EL47512   6.247   9.806  12.269
   698G11  C0EM47513   6.213   9.725  12.387
   698G11  C0EN47514   6.168   9.595  12.372
   698G11  C07I47515   6.124   9.541  12.494
   698G11  C07447516   6.060   9.426  12.497
   698G11  C07347517   5.998   9.393  12.612
   698G11  C07247518   5.927   9.271  12.612
   698G11  C07547519   6.056   9.352  12.379
   698G11  C07647520   6.106   9.402  12.260
   698G11  C07847521   6.107   9.330  12.149
   698G11  C07G47522   5.997   9.229  12.385
   698G11  C07047523   5.999   9.147  12.273
   698G11  C07Z47524   6.131   9.637  12.590
   698G11  C07747525   6.152   9.532  12.251
   698G11  C0EO47526   6.206   9.592  12.143
   698G11  C0F447527   6.204   9.513  12.028
   698G11  C0EQ47528   6.511  10.130  12.009
   698G11  C0FQ47529   6.776  10.228  11.434
   698G11  C0GI47530   6.743  10.164  11.317
   698G11  H01L47531   6.791  10.196  11.227
   698G11  C0EZ47532   6.539  10.041  11.661
   698G11  C0GG47533   6.640  10.069  11.303
   698G11  C0GF47534   6.599  10.013  11.184
   698G11  H01M47535   6.645  10.052  11.095
   698G11  C0GE47536   6.511   9.905  11.179
   698G11  H01K47537   6.477   9.865  11.085
   698G11  O00J47538   6.369   9.659  11.187
   698G11  C0GA47539   6.338   9.525  11.193
   698G11  C0G947540   6.336   9.456  11.076
   698G11  H01H47541   6.379   9.513  10.995
   698G11  C0G847542   6.311   9.317  11.073
   698G11  C0G747543   6.308   9.231  10.952
   698G11  H01I47544   6.309   9.278  10.855
   698G11  O00I47545   6.285   9.099  10.966
   698G11  C0G647546   6.244   9.046  11.086
   698G11  H01J47547   6.271   8.942  11.096
   698G11  C02D47548   6.234   9.124  11.203
   698G11  C02C47549   6.190   9.064  11.324
   698G11  C01747550   6.129   8.934  11.326
   698G11  C01647551   6.076   8.883  11.445
   698G11  O00147552   6.087   8.877  11.208
   698G11  C01847553   6.003   8.772  11.200
   698G11  C00947554   5.969   8.704  11.319
   698G11  C00847555   5.890   8.581  11.328
   698G11  C00747556   5.808   8.505  11.229
   698G11  C00647557   5.776   8.558  11.099
   698G11  C00547558   5.689   8.486  11.011
   698G11  C00447559   5.598   8.370  11.032
   698G11  C00347560   5.548   8.308  11.156
   698G11  C00247561   5.439   8.215  11.147
   698G11  C00P47562   5.376   8.162  11.266
   698G11  C00O47563   5.257   8.089  11.259
   698G11  C00N47564   5.192   8.045  11.373
   698G11  C01047565   5.068   7.987  11.367
   698G11  C01147566   4.989   7.963  11.480
   698G11  C01Q47567   4.852   7.929  11.468
   698G11  C01U47568   4.795   7.900  11.340
   698G11  C01247569   4.879   7.914  11.226
   698G11  H00047570   4.834   7.914  11.127
   698G11  C01V47571   4.658   7.867  11.336
   698G11  H00747572   4.612   7.847  11.240
   698G11  O00547573   4.575   7.865  11.441
   698G11  C01W47574   4.633   7.889  11.572
   698G11  C03147575   4.557   7.864  11.686
   698G11  C03247576   4.612   7.866  11.815
   698G11  H00A47577   4.560   7.840  11.906
   698G11  C03347578   4.751   7.891  11.822
   698G11  H00B47579   4.801   7.878  11.917
   698G11  C01O47580   4.824   7.930  11.708
   698G11  C01N47581   4.958   7.974  11.725
   698G11  C01M47582   5.017   8.012  11.855
   698G11  C01L47583   4.982   8.041  12.000
   698G11  C01K47584   5.102   8.071  12.063
   698G11  C01Y47585   5.124   8.131  12.186
   698G11  C02I47586   5.011   8.145  12.269
   698G11  C02N47587   5.036   8.189  12.398
   698G11  C02M47588   4.926   8.195  12.486
   698G11  C02L47589   4.793   8.177  12.440
   698G11  C02K47590   4.775   8.143  12.305
   698G11  C02U47591   4.639   8.133  12.262
   698G11  C02V47592   4.536   8.135  12.354
   698G11  C03H47593   4.403   8.109  12.315
   698G11  H00C47594   4.376   8.082  12.214
   698G11  C02W47595   4.617   8.131  12.123
   698G11  C02X47596   4.733   8.125  12.043
   698G11  C02Y47597   4.685   8.160  11.912
   698G11  H00847598   4.740   8.182  11.823
   698G11  C02Z47599   4.537   8.194  11.928
   698G11  O00447600   4.461   8.240  11.845
   698G11  O00347601   4.504   8.178  12.057
   698G11  C02J47602   4.883   8.117  12.216
   698G11  C01Z47603   5.246   8.190  12.202
   698G11  C02047604   5.344   8.204  12.103
   698G11  C01I47605   5.327   8.137  11.988
   698G11  C01H47606   5.400   8.169  11.868
   698G11  C00K47607   5.351   8.133  11.744
   698G11  C01S47608   5.235   8.061  11.731
   698G11  C01447609   5.172   8.045  11.614
   698G11  C00J47610   5.419   8.177  11.629
   698G11  C00I47611   5.525   8.263  11.643
   698G11  C00H47612   5.567   8.306  11.767
   698G11  C00G47613   5.668   8.400  11.783
   698G11  C00S47614   5.590   8.308  11.531
   698G11  C00T47615   5.705   8.388  11.552
   698G11  C00U47616   5.769   8.424  11.438
   698G11  C00R47617   5.549   8.274  11.402
   698G11  C00L47618   5.363   8.148  11.505
   698G11  C02847619   5.500   8.265  11.876
   698G11  C02347620   5.528   8.324  12.002
   698G11  C02447621   5.623   8.421  12.013
   698G11  C02147622   5.449   8.293  12.115
   698G11  C02247623   5.466   8.358  12.231
   698G11  C02H47624   5.568   8.453  12.246
   698G11  C03047625   5.583   8.522  12.365
   698G11  C03447626   5.503   8.489  12.470
   698G11  C02P47627   5.387   8.323  12.337
   698G11  C02B47628   5.269   8.252  12.326
   698G11  C01J47629   5.207   8.069  11.970
   698G11  C01X47630   4.865   8.085  12.078
   698G11  C01T47631   5.158   8.032  11.848
   698G11  H00947632   4.453   7.845  11.660
   698G11  C01P47633   4.773   7.919  11.582
   698G11  C01R47634   5.041   7.991  11.606
   698G11  C00Z47635   5.010   7.961  11.237
   698G11  O00047636   5.083   7.980  11.121
   698G11  C00M47637   5.242   8.073  11.495
   698G11  C00Y47638   5.199   8.056  11.137
   698G11  C01347639   5.261   8.103  11.026
   698G11  H00147640   5.215   8.067  10.935
   698G11  C00Q47641   5.428   8.194  11.391
   698G11  C00147642   5.376   8.188  11.024
   698G11  C00047643   5.437   8.233  10.903
   698G11  H00647644   5.389   8.205  10.810
   698G11  C00W47645   5.601   8.333  11.288
   698G11  C01G47646   5.543   8.322  10.909
   698G11  H00547647   5.583   8.348  10.812
   698G11  C01C47648   5.714   8.543  10.881
   698G11  H00247649   5.667   8.518  10.787
   698G11  C01B47650   5.811   8.650  10.894
   698G11  C01D47651   5.863   8.738  10.799
   698G11  H00347652   5.846   8.726  10.693
   698G11  C01E47653   5.965   8.818  10.839
   698G11  H00447654   6.013   8.882  10.766
   698G11  O00247655   6.006   8.830  10.974
   698G11  C01A47656   5.847   8.656  11.029
   698G11  C00V47657   5.719   8.416  11.308
   698G11  C01947658   5.953   8.747  11.071
   698G11  C02E47659   6.188   9.137  11.446
   698G11  C0FX47660   6.230   9.273  11.439
   698G11  C0FW47661   6.230   9.345  11.553
   698G11  C0GB47662   6.268   9.329  11.318
   698G11  C0G347663   6.147   9.079  11.565
   698G11  C07H47664   6.158   9.155  11.683
   698G11  C0GC47665   6.273   9.259  11.199
   698G11  C0G247666   6.299   9.461  11.313
   698G11  C0G147667   6.312   9.534  11.431
   698G11  C0FB47668   6.442   9.856  11.542
   698G11  C0F247669   6.337   9.756  11.786
   698G11  C0FY47670   6.280   9.476  11.551
   698G11  C0F547671   6.249   9.570  11.909
   698G11  C0FV47672   6.197   9.290  11.677
   698G11  C07947673   6.158   9.382  12.029
   698G11  C07A47674   6.059   9.199  12.153
   698G11  C06Y47675   5.949   8.947  12.157
   698G11  C07D47676   6.116   9.098  11.801
   698G11  C01F47677   6.093   8.951  11.564
   698G11  C00A47678   6.010   8.757  11.446
   698G11  C00X47679   5.865   8.524  11.448
   698G11  C00F47680   5.741   8.444  11.675
   698G11  C02947681   5.933   8.724  11.805
   698G11  C02547682   5.697   8.458  11.904
   698G11  C06U47683   5.869   8.757  12.036
   698G11  C02A47684   5.637   8.487  12.136
   698G11  C05Y47685   5.664   8.631  12.374
   698G11  C05Z47686   5.663   8.708  12.492
   698G11  C06047687   5.589   8.677  12.595
   698G11  C06247688   5.584   8.755  12.714
   698G11  C06T47689   5.876   8.831  12.158
   698G11  C06A47690   5.735   8.824  12.502
   698G11  C06Z47691   5.944   9.017  12.275
   698G11  C06Q47692   5.936   9.184  12.502
   698G11  C06847693   5.740   8.904  12.616
   698G11  C06747694   5.661   8.869  12.723
   698G11  C06347695   5.651   9.123  13.063
   698G11  C06C47696   5.633   9.215  13.166
   698G11  C06D47697   5.560   9.192  13.278
   698G11  C06E47698   5.536   9.275  13.385
   698G11  C07Q47699   5.589   9.399  13.374
   698G11  C07P47700   5.676   9.425  13.270
   698G11  C07T47701   5.724   9.552  13.260
   698G11  C07U47702   5.802   9.590  13.146
   698G11  C07V47703   5.849   9.720  13.137
   698G11  C08447704   5.832   9.809  13.243
   698G11  C08C47705   5.755   9.769  13.349
   698G11  C08B47706   5.733   9.862  13.448
   698G11  C08A47707   5.646   9.825  13.546
   698G11  C08947708   5.580   9.708  13.558
   698G11  C08847709   5.483   9.686  13.656
   698G11  C08747710   5.427   9.562  13.668
   698G11  C08647711   5.467   9.458  13.582
   698G11  C08X47712   5.439   9.789  13.738
   698G11  C08T47713   5.514   9.917  13.729
   698G11  C08D47714   5.613   9.615  13.464
   698G11  C08U47715   5.616   9.926  13.638
   698G11  C08V47716   5.662  10.055  13.632
   698G11  C0CY47717   5.739  10.094  13.527
   698G11  C0CX47718   5.764  10.230  13.510
   698G11  C0CW47719   5.828  10.272  13.392
   698G11  C0CV47720   5.867  10.174  13.309
   698G11  C0D447721   5.838  10.037  13.324
   698G11  C0CU47722   5.931  10.216  13.194
   698G11  C0CT47723   5.956  10.350  13.163
   698G11  C0CS47724   5.916  10.444  13.258
   698G11  C0D647725   5.969  10.118  13.111
   698G11  C0EC47726   5.931   9.982  13.116
   698G11  C07X47727   5.968   9.888  13.021
   698G11  C0DL47728   6.037  10.150  12.995
   698G11  C0DK47729   6.078  10.058  12.907
   698G11  C0DN47730   6.133  10.134  12.809
   698G11  C0D847731   6.067  10.283  12.957
   698G11  C08W47732   5.606  10.139  13.719
   698G11  C0CQ47733   5.624  10.281  13.709
   698G11  C09347734   5.778   9.996  13.439
   698G11  C09247735   5.862   9.940  13.229
   698G11  C08547736   5.704   9.646  13.359
   698G11  C07S47737   5.557   9.491  13.474
   698G11  C06F47738   5.451   9.242  13.490
   698G11  C07O47739   5.698   9.340  13.162
   698G11  C07N47740   5.770   9.373  13.050
   698G11  C05D47741   5.521   9.062  13.291
   698G11  C05C47742   5.449   9.024  13.398
   698G11  C05N47743   5.404   8.896  13.383
   698G11  C05M47744   5.403   8.739  13.033
   698G11  C05I47745   5.502   8.718  12.819
   698G11  C06147746   5.513   8.566  12.583
   698G11  C02Q47747   5.416   8.382  12.454
   698G11  C02O47748   5.172   8.231  12.429
   698G11  C03Q47749   5.238   8.398  12.745
   698G11  C03O47750   5.074   8.450  12.905
   698G11  C03L47751   4.736   8.352  12.927
   698G11  C02S47752   4.935   8.256  12.617
   698G11  C02T47753   4.681   8.204  12.525
   698G11  C03K47754   4.601   8.326  12.882
   698G11  C03I47755   4.556   8.179  12.482
   698G11  C03G47756   4.295   8.105  12.397
   698G11  H00D47757   4.200   8.072  12.359
   698G11  C03J47758   4.342   8.246  12.780
   698G11  C03W47759   4.105   8.271  12.931
   698G11  C04I47760   4.229   8.361  13.109
   698G11  C04K47761   4.260   8.478  13.362
   698G11  C04N47762   4.295   8.538  13.480
   698G11  C04X47763   4.453   8.636  13.640
   698G11  C05047764   4.606   8.756  13.802
   698G11  C05W47765   4.815   8.677  13.623
   698G11  C05S47766   4.977   9.020  13.898
   698G11  C05R47767   5.088   8.799  13.656
   698G11  C05O47768   5.308   8.848  13.476
   698G11  C05B47769   5.416   9.113  13.505
   698G11  C05A47770   5.175   9.104  13.778
   698G11  C07R47771   5.409   9.333  13.586
   698G11  C08N47772   5.335   9.531  13.771
   698G11  C08M47773   5.292   9.636  13.858
   698G11  C08L47774   5.220   9.602  13.971
   698G11  C09147775   5.070   9.138  13.874
   698G11  C09K47776   4.934   9.330  14.142
   698G11  H00M47777   4.837   9.299  14.105
   698G11  C08K47778   5.204   9.465  14.006
   698G11  C09J47779   4.947   9.441  14.231
   698G11  C09I47780   4.876   9.542  14.310
   698G11  C09L47781   4.746   9.539  14.370
   698G11  H00N47782   4.676   9.462  14.343
   698G11  C09Q47783   4.720   9.645  14.451
   698G11  H00O47784   4.621   9.645  14.492
   698G11  O00B47785   4.801   9.756  14.479
   698G11  C09G47786   4.918   9.768  14.406
   698G11  C09F47787   4.989   9.897  14.414
   698G11  O00A47788   4.963   9.980  14.518
   698G11  C09P47789   5.060  10.083  14.539
   698G11  H00P47790   5.071  10.127  14.636
   698G11  C09O47791   5.137  10.146  14.437
   698G11  C09D47792   5.130  10.085  14.313
   698G11  C09C47793   5.175  10.128  14.180
   698G11  C09N47794   5.271  10.227  14.134
   698G11  C09T47795   5.338  10.317  14.217
   698G11  C09S47796   5.310  10.321  14.363
   698G11  C0CP47797   5.408  10.412  14.402
   698G11  C0CN47798   5.485  10.465  14.295
   698G11  C0CO47799   5.587  10.558  14.326
   698G11  H01447800   5.654  10.601  14.253
   698G11  C0CZ47801   5.592  10.597  14.458
   698G11  H01547802   5.676  10.661  14.479
   698G11  C0D047803   5.500  10.559  14.557
   698G11  C0G547804   5.488  10.615  14.690
   698G11  H01F47805   5.557  10.695  14.713
   698G11  C0G447806   5.401  10.570  14.780
   698G11  H01G47807   5.388  10.619  14.875
   698G11  O00H47808   5.313  10.468  14.755
   698G11  C0D247809   5.316  10.416  14.632
   698G11  C09V47810   5.224  10.315  14.594
   698G11  H00Q47811   5.149  10.300  14.671
   698G11  C0D147812   5.408  10.462  14.535
   698G11  C09R47813   5.223  10.261  14.465
   698G11  C09H47814   4.964   9.653  14.335
   698G11  C09E47815   5.073   9.947  14.314
   698G11  C09B47816   5.143  10.055  14.062
   698G11  C08Z47817   5.179   9.709  14.050
   698G11  C08O47818   5.339   9.769  13.831
   698G11  C09A47819   5.208  10.104  13.953
   698G11  C08S47820   5.509  10.051  13.783
   698G11  C09947821   5.279  10.218  13.993
   698G11  C09U47822   5.436  10.408  14.170
   698G11  C0BO47823   5.593  10.750  13.852
   698G11  C0CL47824   5.579  10.375  13.806
   698G11  C0D347825   5.708  10.320  13.607
   698G11  C0D547826   5.848  10.407  13.373
   698G11  C0BR47827   5.705  10.685  13.645
   698G11  C0BQ47828   5.667  10.785  13.739
   698G11  C0BL47829   5.587  10.981  13.922
   698G11  C0AF47830   5.648  11.247  13.875
   698G11  C0BH47831   5.771  11.096  13.565
   698G11  C0BG47832   5.827  11.136  13.450
   698G11  C0BD47833   5.828  11.368  13.520
   698G11  C0AG47834   5.675  11.375  13.848
   698G11  C0AI47835   5.710  11.596  13.941
   698G11  C0AV47836   5.878  11.810  13.961
   698G11  C0BB47837   5.890  11.721  13.600
   698G11  O00C47838   6.053  11.935  13.843
   698G11  C0BC47839   5.979  11.774  13.510
   698G11  C0B947840   5.876  11.503  13.501
   698G11  O00E47841   6.073  11.464  13.202
   698G11  C0CA47842   6.083  11.391  13.093
   698G11  O00F47843   6.141  11.439  12.992
   698G11  C0BF47844   5.859  11.270  13.428
   698G11  C0C547845   6.021  11.265  13.102
   698G11  C0C447846   6.041  11.170  12.998
   698G11  H01147847   6.083  11.204  12.904
   698G11  C0C847848   5.868  11.040  13.358
   698G11  C0C247849   6.009  11.034  13.026
   698G11  C0C347850   6.033  10.931  12.937
   698G11  C0DY47851   6.067  10.958  12.804
   698G11  H01647852   6.080  11.054  12.756
   698G11  C0DX47853   6.107  10.822  12.762
   698G11  C0DW47854   6.202  10.816  12.658
   698G11  C0BY47855   5.885  10.807  13.291
   698G11  C0DB47856   6.029  10.800  12.966
   698G11  C0CC47857   5.926  10.576  13.227
   698G11  C0D747858   6.020  10.389  13.045
   698G11  C0DZ47859   6.080  10.719  12.860
   698G11  C0DM47860   6.143  10.274  12.840
   698G11  C0DQ47861   6.211  10.564  12.639
   698G11  C0DV47862   6.242  10.694  12.607
   698G11  C0E047863   6.280  10.921  12.607
   698G11  C0FO47864   6.601  10.841  12.464
   698G11  C0E347865   6.376  10.987  12.701
   698G11  H01747866   6.365  11.003  12.808
   698G11  C0GV47867   6.699  10.888  12.548
   698G11  C0ES47868   6.614  10.712  12.406
   698G11  C0GQ47869   6.982  10.702  12.440
   698G11  C0FJ47870   6.946  10.396  12.241
   698G11  C0ED47871   6.669  10.454  12.289
   698G11  C0ER47872   6.609  10.225  12.019
   698G11  C0EP47873   6.447  10.105  12.129
   698G11  C0E647874   6.432  10.400  12.377
   698G11  C0DE47875   6.247  10.214  12.536
   698G11  C0EA47876   6.297   9.940  12.265
   698G11  C0DF47877   6.167  10.106  12.572
   698G11  C08047878   6.194   9.749  12.523
   698G11  C0DO47879   6.147  10.054  12.699
   698G11  C0DJ47880   6.046   9.922  12.913
   698G11  C07K47881   6.053   9.610  12.710
   698G11  C07W47882   5.928   9.757  13.029
   698G11  C08347883   5.827   9.502  13.041
   698G11  C07J47884   5.992   9.480  12.719
   698G11  C06O47885   5.864   9.233  12.729
   698G11  C06M47886   5.786   9.281  12.946
   708G11  C07147887  10.085   8.684   5.881
   708G11  C07L47888  10.219   8.670   5.842
   708G11  C07M47889  10.289   8.560   5.884
   708G11  C07Y47890  10.410   8.524   5.828
   708G11  C08147891  10.467   8.598   5.724
   708G11  C08247892  10.581   8.546   5.662
   708G11  C0DI47893  10.647   8.588   5.535
   708G11  C0DH47894  10.640   8.702   5.457
   708G11  C0DG47895  10.720   8.682   5.341
   708G11  C0E947896  10.799   8.783   5.278
   708G11  C0E847897  10.936   8.728   5.259
   708G11  C0E747898  11.055   8.794   5.202
   708G11  C0EB47899  11.041   8.915   5.127
   708G11  C0EF47900  11.146   9.001   5.064
   708G11  C0EE47901  11.278   9.033   5.107
   708G11  C0FD47902  11.329   9.172   5.111
   708G11  C0FE47903  11.251   9.289   5.098
   708G11  H01B47904  11.144   9.283   5.095
   708G11  C0FF47905  11.308   9.418   5.089
   708G11  H01A47906  11.257   9.510   5.066
   708G11  C0FG47907  11.439   9.428   5.131
   708G11  H01847908  11.484   9.526   5.143
   708G11  C0FH47909  11.517   9.319   5.168
   708G11  C0FI47910  11.652   9.330   5.223
   708G11  H01947911  11.688   9.430   5.241
   708G11  O00K47912  11.733   9.226   5.251
   708G11  C0FL47913  11.677   9.104   5.230
   708G11  C0FK47914  11.542   9.077   5.179
   708G11  C0FM47915  11.493   8.945   5.165
   708G11  C0FN47916  11.584   8.839   5.164
   708G11  C0FP47917  11.710   8.863   5.218
   708G11  C0GO47918  11.802   8.759   5.239
   708G11  C0GN47919  11.923   8.766   5.312
   708G11  C0GR47920  11.958   8.896   5.357
   708G11  C0GS47921  12.067   8.916   5.439
   708G11  H01Q47922  12.083   9.017   5.476
   708G11  C0GT47923  12.144   8.807   5.482
   708G11  H01O47924  12.217   8.824   5.559
   708G11  C0GU47925  12.115   8.681   5.433
   708G11  H01P47926  12.183   8.600   5.456
   708G11  O00L47927  11.880   9.008   5.316
   708G11  C0GM47928  12.003   8.652   5.348
   708G11  C0GL47929  11.951   8.524   5.299
   708G11  H01R47930  12.002   8.434   5.328
   708G11  C0GK47931  11.841   8.517   5.215
   708G11  C0GP47932  11.754   8.412   5.167
   708G11  C0E247933  11.653   8.475   5.086
   708G11  C0E147934  11.531   8.395   5.112
   708G11  C0DU47935  11.411   8.438   5.169
   708G11  C0DT47936  11.347   8.560   5.161
   708G11  C0E447937  11.413   8.683   5.137
   708G11  C0E547938  11.319   8.785   5.154
   708G11  C0DS47939  11.220   8.592   5.209
   708G11  C0DR47940  11.166   8.488   5.287
   708G11  C0DD47941  11.047   8.495   5.355
   708G11  C0DC47942  11.042   8.368   5.429
   708G11  C0DP47943  11.158   8.287   5.416
   708G11  C0DA47944  11.192   8.156   5.471
   708G11  C0D947945  11.128   8.077   5.586
   708G11  C0CR47946  11.183   7.957   5.638
   708G11  C0C047947  11.294   7.896   5.581
   708G11  C0BZ47948  11.353   7.779   5.624
   708G11  C0C147949  11.456   7.719   5.552
   708G11  C0C747950  11.514   7.602   5.598
   708G11  C0C647951  11.627   7.548   5.531
   708G11  C0C947952  11.685   7.433   5.586
   708G11  C0B847953  11.787   7.366   5.510
   708G11  C0B747954  11.857   7.258   5.566
   708G11  C0B647955  11.966   7.171   5.517
   708G11  C0B547956  11.972   7.115   5.383
   708G11  H00Z47957  11.915   7.141   5.295
   708G11  C0B447958  12.052   6.994   5.398
   708G11  H01047959  12.071   6.916   5.326
   708G11  C0B347960  12.087   6.977   5.535
   708G11  C0AP47961  12.105   6.876   5.639
   708G11  C0AQ47962  12.062   6.946   5.752
   708G11  C0AR47963  12.000   6.873   5.852
   708G11  C0AS47964  11.909   6.948   5.919
   708G11  C0AT47965  11.866   7.076   5.885
   708G11  C0BA47966  11.914   7.142   5.779
   708G11  C0AU47967  11.745   7.125   5.942
   708G11  C0BE47968  11.677   7.232   5.885
   708G11  C0BI47969  11.558   7.274   5.946
   708G11  C0BJ47970  11.510   7.208   6.056
   708G11  C0BK47971  11.404   7.265   6.124
   708G11  C0BW47972  11.329   7.368   6.069
   708G11  C0BV47973  11.381   7.433   5.959
   708G11  C0BU47974  11.318   7.545   5.906
   708G11  C0BX47975  11.362   7.606   5.789
   708G11  C0BT47976  11.206   7.595   5.973
   708G11  C0CD47977  11.147   7.711   5.926
   708G11  C0CB47978  11.198   7.771   5.808
   708G11  C0CE47979  11.026   7.749   5.985
   708G11  C0CK47980  10.975   7.680   6.099
   708G11  C0BS47981  11.037   7.569   6.152
   708G11  C0CJ47982  10.981   7.489   6.254
   708G11  C0BP47983  11.052   7.389   6.310
   708G11  C0CI47984  11.001   7.310   6.417
   708G11  C0CH47985  11.100   7.239   6.490
   708G11  H01247986  11.070   7.206   6.588
   708G11  C0BN47987  11.220   7.193   6.429
   708G11  C0CG47988  11.292   7.085   6.486
   708G11  C0CF47989  11.257   7.024   6.611
   708G11  H01347990  11.177   7.069   6.668
   708G11  O00G47991  11.312   6.910   6.657
   708G11  C0AA47992  11.397   6.846   6.573
   708G11  C0A947993  11.445   6.720   6.611
   708G11  H00U47994  11.408   6.680   6.704
   708G11  C0A847995  11.538   6.656   6.535
   708G11  H00V47996  11.556   6.559   6.579
   708G11  C0A747997  11.588   6.699   6.420
   708G11  C0A647998  11.545   6.834   6.378
   708G11  C0A547999  11.590   6.910   6.266
   708G11  C0A448000  11.698   6.855   6.189
   708G11  C0A348001  11.788   6.741   6.179
   708G11  C0A248002  11.755   6.618   6.233
   708G11  C0A148003  11.834   6.501   6.207
   708G11  C0A048004  11.937   6.456   6.111
   708G11  C09Z48005  11.971   6.321   6.120
   708G11  C09Y48006  12.058   6.255   6.026
   708G11  H00Y48007  12.089   6.152   6.036
   708G11  C09X48008  12.110   6.334   5.923
   708G11  C09W48009  12.205   6.271   5.839
   708G11  H00R48010  12.239   6.170   5.854
   708G11  C0AX48011  12.253   6.339   5.730
   708G11  H00S48012  12.318   6.299   5.654
   708G11  C0AW48013  12.224   6.473   5.713
   708G11  H00T48014  12.269   6.521   5.628
   708G11  C0AN48015  12.131   6.541   5.796
   708G11  C0AO48016  12.091   6.673   5.775
   708G11  C0AM48017  12.073   6.469   5.903
   708G11  C0B248018  11.921   6.225   6.217
   708G11  O00D48019  11.950   6.109   6.225
   708G11  C0B148020  11.836   6.278   6.317
   708G11  H00W48021  11.799   6.217   6.398
   708G11  C0AL48022  11.988   6.531   5.996
   708G11  C0AK48023  11.957   6.670   5.978
   708G11  C0B048024  11.798   6.414   6.310
   708G11  C0AZ48025  11.693   6.466   6.388
   708G11  H00X48026  11.647   6.411   6.469
   708G11  C0AJ48027  11.870   6.750   6.061
   708G11  C0AH48028  11.749   6.947   6.096
   708G11  C0AE48029  11.537   7.034   6.225
   708G11  C0AD48030  11.434   7.087   6.298
   708G11  C0AY48031  11.675   6.602   6.347
   708G11  C0AB48032  11.447   6.901   6.450
   708G11  C0AC48033  11.398   7.026   6.416
   708G11  C0BM48034  11.251   7.246   6.309
   708G11  C0CM48035  10.868   7.315   6.452
   708G11  C09M48036  10.796   7.438   6.419
   708G11  C09848037  10.686   7.471   6.505
   708G11  C08R48038  10.577   7.568   6.492
   708G11  C08Q48039  10.497   7.576   6.605
   708G11  C08P48040  10.367   7.617   6.641
   708G11  C08Y48041  10.312   7.557   6.753
   708G11  C09748042  10.370   7.447   6.811
   708G11  C09648043  10.284   7.349   6.846
   708G11  C09048044  10.165   7.429   6.852
   708G11  C09548045  10.040   7.366   6.865
   708G11  C09448046   9.921   7.449   6.884
   708G11  C08J48047   9.887   7.584   6.847
   708G11  C08I48048   9.752   7.588   6.799
   708G11  C08H48049   9.730   7.704   6.707
   708G11  C08G48050   9.866   7.745   6.669
   708G11  C08F48051   9.929   7.850   6.595
   708G11  C08E48052   9.856   7.959   6.538
   708G11  C05948053   9.735   8.003   6.589
   708G11  C05848054   9.686   8.130   6.550
   708G11  C05748055   9.570   8.196   6.594
   708G11  C05648056   9.497   8.124   6.694
   708G11  C05548057   9.544   8.009   6.746
   708G11  C05448058   9.439   7.940   6.805
   708G11  C05348059   9.322   8.017   6.779
   708G11  C05248060   9.184   7.991   6.789
   708G11  C05148061   9.140   7.854   6.810
   708G11  C05U48062   9.224   7.733   6.812
   708G11  C05T48063   9.367   7.708   6.784
   708G11  C06K48064   9.382   7.568   6.797
   708G11  H00J48065   9.479   7.522   6.784
   708G11  C06L48066   9.262   7.511   6.843
   708G11  H00I48067   9.256   7.408   6.875
   708G11  C05V48068   9.162   7.610   6.847
   708G11  C06J48069   9.029   7.595   6.876
   708G11  H00K48070   8.992   7.503   6.919
   708G11  C05X48071   8.946   7.702   6.873
   708G11  C06I48072   8.812   7.698   6.911
   708G11  H00L48073   8.783   7.600   6.945
   708G11  C04Z48074   8.720   7.804   6.905
   708G11  C06H48075   8.582   7.786   6.937
   708G11  H00H48076   8.546   7.693   6.978
   708G11  C04Y48077   8.487   7.877   6.874
   708G11  C06G48078   8.345   7.850   6.887
   708G11  O00948079   8.296   7.753   6.945
   708G11  O00848080   8.264   7.938   6.821
   708G11  C04P48081   8.307   8.046   6.750
   708G11  C04J48082   8.224   8.143   6.682
   708G11  C04Q48083   8.087   8.136   6.664
   708G11  H00E48084   8.027   8.054   6.701
   708G11  C04M48085   8.005   8.231   6.593
   708G11  C04R48086   7.861   8.227   6.570
   708G11  H00F48087   7.807   8.139   6.603
   708G11  C04S48088   7.805   8.324   6.494
   708G11  H00G48089   7.700   8.322   6.470
   708G11  O00748090   7.872   8.441   6.464
   708G11  C03V48091   8.012   8.436   6.470
   708G11  C03U48092   8.082   8.532   6.392
   708G11  O00648093   7.999   8.608   6.322
   708G11  C03F48094   8.062   8.692   6.237
   708G11  C03E48095   8.197   8.719   6.237
   708G11  C03D48096   8.280   8.650   6.327
   708G11  C03C48097   8.418   8.663   6.338
   708G11  C03B48098   8.468   8.762   6.253
   708G11  C03A48099   8.606   8.791   6.256
   708G11  C03948100   8.696   8.721   6.341
   708G11  C03848101   8.823   8.783   6.308
   708G11  C03748102   8.795   8.889   6.217
   708G11  C03648103   8.888   8.974   6.168
   708G11  C02R48104   8.881   9.067   6.065
   708G11  C03548105   9.018   9.092   6.037
   708G11  C03R48106   9.103   9.023   6.120
   708G11  C03S48107   9.234   8.981   6.080
   708G11  C04948108   9.287   8.878   6.149
   708G11  C04848109   9.208   8.810   6.247
   708G11  C03P48110   9.069   8.836   6.272
   708G11  C04748111   9.285   8.723   6.328
   708G11  C04648112   9.242   8.647   6.438
   708G11  C04548113   9.115   8.620   6.488
   708G11  C03T48114   8.989   8.660   6.436
   708G11  C04448115   8.895   8.576   6.505
   708G11  C04348116   8.958   8.511   6.605
   708G11  C04248117   8.877   8.406   6.661
   708G11  C04148118   8.747   8.436   6.601
   708G11  C04048119   8.627   8.370   6.639
   708G11  C03Z48120   8.492   8.397   6.595
   708G11  C04H48121   8.416   8.291   6.646
   708G11  C04G48122   8.495   8.201   6.717
   708G11  C03N48123   8.430   8.482   6.492
   708G11  C03Y48124   8.289   8.461   6.487
   708G11  C03X48125   8.217   8.353   6.549
   708G11  C04F48126   8.626   8.243   6.711
   708G11  C04E48127   8.719   8.147   6.760
   708G11  C04O48128   8.671   8.025   6.817
   708G11  C04D48129   8.859   8.162   6.758
   708G11  C04V48130   8.943   8.060   6.800
   708G11  C04W48131   8.904   7.935   6.836
   708G11  C04C48132   8.931   8.279   6.717
   708G11  C04L48133   9.071   8.235   6.739
   708G11  C04U48134   9.187   8.316   6.705
   708G11  C05Q48135   9.316   8.263   6.685
   708G11  C05P48136   9.394   8.349   6.610
   708G11  C04T48137   9.321   8.462   6.572
   708G11  C04B48138   9.197   8.443   6.630
   708G11  C03M48139   8.750   8.549   6.509
   708G11  C04A48140   9.096   8.523   6.581
   708G11  C05H48141   9.341   8.566   6.479
   708G11  C05G48142   9.454   8.581   6.391
   708G11  C05F48143   9.570   8.503   6.391
   708G11  C05E48144   9.671   8.504   6.284
   708G11  C05L48145   9.710   8.592   6.179
   708G11  C05K48146   9.627   8.700   6.130
   708G11  C05J48147   9.492   8.740   6.177
   708G11  C06648148   9.684   8.767   6.022
   708G11  C06548149   9.809   8.729   5.970
   708G11  C06448150   9.891   8.630   6.023
   708G11  C06N48151   9.873   8.808   5.870
   708G11  C06948152   9.800   8.910   5.815
   708G11  C06P48153   9.855   8.978   5.703
   708G11  C06R48154   9.776   9.059   5.626
   708G11  C06B48155   9.640   9.074   5.656
   708G11  C06S48156   9.557   9.139   5.563
   708G11  C02G48157   9.421   9.165   5.599
   708G11  C02F48158   9.333   9.226   5.510
   708G11  C02748159   9.380   9.259   5.383
   708G11  C02648160   9.292   9.318   5.296
   708G11  C00E48161   9.338   9.341   5.169
   708G11  C00D48162   9.245   9.379   5.074
   708G11  C00C48163   9.287   9.381   4.948
   708G11  C00B48164   9.410   9.352   4.902
   708G11  C01548165   9.505   9.320   4.997
   708G11  C07F48166   9.633   9.294   4.959
   708G11  C07E48167   9.724   9.251   5.050
   708G11  C06W48168   9.687   9.240   5.188
   708G11  C06V48169   9.559   9.260   5.219
   708G11  C06X48170   9.776   9.198   5.285
   708G11  C07B48171   9.908   9.180   5.247
   708G11  C07C48172   9.950   9.206   5.120
   708G11  C0FU48173  10.083   9.190   5.083
   708G11  C0F748174  10.119   9.207   4.953
   708G11  C0F648175  10.251   9.192   4.916
   708G11  C0F848176  10.292   9.211   4.785
   708G11  C0F948177  10.427   9.210   4.756
   708G11  C0FA48178  10.477   9.252   4.635
   708G11  C0FZ48179  10.384   9.268   4.536
   708G11  C0G048180  10.429   9.316   4.412
   708G11  C0GD48181  10.564   9.356   4.389
   708G11  C0FC48182  10.655   9.328   4.491
   708G11  C0GH48183  10.795   9.363   4.477
   708G11  C0EY48184  10.884   9.317   4.573
   708G11  C0EX48185  11.018   9.344   4.562
   708G11  C0EW48186  11.110   9.291   4.651
   708G11  C0FR48187  11.247   9.324   4.647
   708G11  H01D48188  11.317   9.283   4.719
   708G11  C0FS48189  11.293   9.416   4.550
   708G11  H01C48190  11.398   9.440   4.559
   708G11  C0GJ48191  11.202   9.461   4.454
   708G11  H01N48192  11.240   9.529   4.379
   708G11  C0EV48193  11.067   9.211   4.753
   708G11  C0FT48194  11.154   9.147   4.846
   708G11  H01E48195  11.262   9.146   4.850
   708G11  C0EU48196  10.928   9.194   4.775
   708G11  C0ET48197  10.877   9.118   4.884
   708G11  C0EI48198  10.743   9.109   4.914
   708G11  C0F148199  10.654   9.168   4.822
   708G11  C0F048200  10.704   9.224   4.704
   708G11  C0EH48201  10.698   9.045   5.030
   708G11  C0EG48202  10.783   8.966   5.114
   708G11  C0EJ48203  10.567   9.057   5.062
   708G11  C0F348204  10.476   9.119   4.977
   708G11  C0EK48205  10.519   9.022   5.187
   708G11  C0EL48206  10.599   8.938   5.269
   708G11  C0EM48207  10.541   8.909   5.398
   708G11  C0EN48208  10.435   8.986   5.450
   708G11  C07I48209  10.383   8.922   5.562
   708G11  C07448210  10.253   8.936   5.604
   708G11  C07348211  10.200   8.853   5.698
   708G11  C07248212  10.068   8.878   5.740
   708G11  C07548213  10.175   9.017   5.523
   708G11  C07648214  10.219   9.069   5.401
   708G11  C07848215  10.135   9.127   5.307
   708G11  C07G48216  10.040   9.031   5.556
   708G11  C07048217   9.953   9.100   5.468
   708G11  C07Z48218  10.460   8.808   5.590
   708G11  C07748219  10.349   9.046   5.358
   708G11  C0EO48220  10.395   9.074   5.232
   708G11  C0F448221  10.303   9.129   5.144
   708G11  C0EQ48222  10.964   9.057   4.972
   708G11  C0FQ48223  11.067   9.426   4.460
   708G11  C0GI48224  10.973   9.476   4.366
   708G11  H01L48225  11.011   9.544   4.292
   708G11  C0EZ48226  10.837   9.246   4.684
   708G11  C0GG48227  10.842   9.432   4.365
   708G11  C0GF48228  10.743   9.467   4.269
   708G11  H01M48229  10.768   9.534   4.189
   708G11  C0GE48230  10.611   9.422   4.273
   708G11  H01K48231  10.549   9.446   4.188
   708G11  O00J48232  10.340   9.339   4.309
   708G11  C0GA48233  10.204   9.327   4.334
   708G11  C0G948234  10.106   9.348   4.239
   708G11  H01H48235  10.139   9.368   4.137
   708G11  C0G848236   9.966   9.341   4.261
   708G11  C0G748237   9.861   9.365   4.162
   708G11  H01I48238   9.889   9.388   4.060
   708G11  O00I48239   9.726   9.373   4.190
   708G11  C0G648240   9.696   9.371   4.321
   708G11  H01J48241   9.599   9.417   4.335
   708G11  C02D48242   9.790   9.345   4.423
   708G11  C02C48243   9.750   9.335   4.557
   708G11  C01748244   9.611   9.350   4.597
   708G11  C01648245   9.575   9.339   4.735
   708G11  O00148246   9.510   9.350   4.500
   708G11  C01848247   9.379   9.358   4.535
   708G11  C00948248   9.342   9.370   4.669
   708G11  C00848249   9.210   9.401   4.715
   708G11  C00748250   9.078   9.408   4.656
   708G11  C00648251   9.053   9.361   4.522
   708G11  C00548252   8.919   9.347   4.466
   708G11  C00448253   8.793   9.370   4.525
   708G11  C00348254   8.745   9.383   4.667
   708G11  C00248255   8.607   9.365   4.698
   708G11  C00P48256   8.563   9.362   4.833
   708G11  C00O48257   8.436   9.318   4.862
   708G11  C00N48258   8.390   9.299   4.996
   708G11  C01048259   8.269   9.235   5.020
   708G11  C01148260   8.233   9.188   5.147
   708G11  C01Q48261   8.127   9.101   5.163
   708G11  C01U48262   8.047   9.060   5.054
   708G11  C01248263   8.074   9.119   4.927
   708G11  H00048264   8.014   9.089   4.843
   708G11  C01V48265   7.942   8.971   5.088
   708G11  H00748266   7.869   8.959   5.009
   708G11  O00548267   7.914   8.927   5.212
   708G11  C01W48268   8.015   8.937   5.306
   708G11  C03148269   8.035   8.843   5.407
   708G11  C03248270   8.142   8.850   5.499
   708G11  H00A48271   8.157   8.767   5.566
   708G11  C03348272   8.218   8.965   5.494
   708G11  H00B48273   8.296   8.969   5.568
   708G11  C01O48274   8.204   9.061   5.394
   708G11  C01N48275   8.281   9.175   5.385
   708G11  C01M48276   8.374   9.216   5.500
   708G11  C01L48277   8.402   9.178   5.640
   708G11  C01K48278   8.532   9.229   5.668
   708G11  C01Y48279   8.616   9.179   5.770
   708G11  C02I48280   8.562   9.098   5.868
   708G11  C02N48281   8.645   9.050   5.967
   708G11  C02M48282   8.592   8.956   6.062
   708G11  C02L48283   8.449   8.927   6.064
   708G11  C02K48284   8.366   8.983   5.964
   708G11  C02U48285   8.226   8.966   5.970
   708G11  C02V48286   8.169   8.883   6.069
   708G11  C03H48287   8.029   8.859   6.075
   708G11  H00C48288   7.951   8.910   6.021
   708G11  C02W48289   8.149   9.023   5.877
   708G11  C02X48290   8.208   9.095   5.779
   708G11  C02Y48291   8.103   9.148   5.693
   708G11  H00848292   8.098   9.205   5.602
   708G11  C02Z48293   7.981   9.073   5.736
   708G11  O00448294   7.872   9.055   5.677
   708G11  O00348295   8.010   9.018   5.853
   708G11  C02J48296   8.421   9.062   5.858
   708G11  C01Z48297   8.748   9.213   5.755
   708G11  C02048298   8.798   9.277   5.644
   708G11  C01I48299   8.712   9.316   5.539
   708G11  C01H48300   8.751   9.342   5.410
   708G11  C00K48301   8.660   9.351   5.307
   708G11  C01S48302   8.526   9.314   5.327
   708G11  C01448303   8.435   9.291   5.226
   708G11  C00J48304   8.702   9.363   5.174
   708G11  C00I48305   8.835   9.383   5.150
   708G11  C00H48306   8.927   9.372   5.251
   708G11  C00G48307   9.066   9.364   5.230
   708G11  C00S48308   8.879   9.410   5.020
   708G11  C00T48309   9.014   9.419   5.007
   708G11  C00U48310   9.061   9.429   4.876
   708G11  C00R48311   8.793   9.401   4.910
   708G11  C00L48312   8.610   9.353   5.065
   708G11  C02848313   8.886   9.346   5.383
   708G11  C02348314   8.975   9.309   5.483
   708G11  C02448315   9.109   9.300   5.453
   708G11  C02148316   8.931   9.277   5.612
   708G11  C02248317   9.019   9.223   5.703
   708G11  C02H48318   9.152   9.214   5.676
   708G11  C03048319   9.242   9.154   5.766
   708G11  C03448320   9.198   9.109   5.882
   708G11  C02P48321   8.974   9.182   5.829
   708G11  C02B48322   8.832   9.171   5.855
   708G11  C01J48323   8.573   9.308   5.565
   708G11  C01X48324   8.339   9.120   5.754
   708G11  C01T48325   8.484   9.294   5.463
   708G11  H00948326   7.963   8.764   5.423
   708G11  C01P48327   8.115   9.038   5.292
   708G11  C01R48328   8.311   9.226   5.259
   708G11  C00Z48329   8.185   9.203   4.910
   708G11  O00048330   8.217   9.242   4.784
   708G11  C00M48331   8.477   9.314   5.096
   708G11  C00Y48332   8.343   9.284   4.758
   708G11  C01348333   8.385   9.295   4.624
   708G11  H00148334   8.311   9.267   4.551
   708G11  C00Q48335   8.659   9.380   4.938
   708G11  C00148336   8.514   9.345   4.592
   708G11  C00048337   8.557   9.363   4.463
   708G11  H00648338   8.492   9.345   4.379
   708G11  C00W48339   8.838   9.401   4.777
   708G11  C01G48340   8.691   9.377   4.432
   708G11  H00548341   8.706   9.383   4.325
   708G11  C01C48342   8.945   9.323   4.323
   708G11  H00248343   8.873   9.309   4.243
   708G11  C01B48344   9.080   9.329   4.300
   708G11  C01D48345   9.139   9.324   4.175
   708G11  H00348346   9.083   9.319   4.083
   708G11  C01E48347   9.278   9.335   4.182
   708G11  H00448348   9.326   9.351   4.087
   708G11  O00248349   9.353   9.341   4.299
   708G11  C01A48350   9.153   9.341   4.420
   708G11  C00V48351   8.984   9.405   4.762
   708G11  C01948352   9.293   9.350   4.422
   708G11  C02E48353   9.842   9.307   4.659
   708G11  C0FX48354   9.978   9.292   4.623
   708G11  C0FW48355  10.068   9.257   4.722
   708G11  C0GB48356  10.019   9.307   4.489
   708G11  C0G348357   9.803   9.290   4.791
   708G11  C07H48358   9.900   9.254   4.887
   708G11  C0GC48359   9.925   9.329   4.390
   708G11  C0G248360  10.155   9.290   4.459
   708G11  C0G148361  10.244   9.267   4.560
   708G11  C0FB48362  10.613   9.268   4.610
   708G11  C0F248363  10.519   9.162   4.849
   708G11  C0FY48364  10.200   9.239   4.688
   708G11  C0F548365  10.347   9.151   5.011
   708G11  C0FV48366  10.031   9.235   4.853
   708G11  C07948367  10.173   9.155   5.179
   708G11  C07A48368  10.000   9.145   5.345
   708G11  C06Y48369   9.738   9.164   5.414
   708G11  C07D48370   9.858   9.235   5.017
   708G11  C01F48371   9.669   9.310   4.827
   708G11  C00A48372   9.441   9.350   4.766
   708G11  C00X48373   9.193   9.414   4.852
   708G11  C00F48374   9.112   9.400   5.107
   708G11  C02948375   9.469   9.308   5.131
   708G11  C02548376   9.157   9.334   5.328
   708G11  C06U48377   9.514   9.230   5.346
   708G11  C02A48378   9.198   9.246   5.547
   708G11  C05Y48379   9.377   9.125   5.721
   708G11  C05Z48380   9.458   9.045   5.808
   708G11  C06048381   9.405   8.991   5.919
   708G11  C06248382   9.482   8.897   5.998
   708G11  C06T48383   9.603   9.178   5.442
   708G11  C06A48384   9.591   9.024   5.775
   708G11  C06Z48385   9.825   9.117   5.509
   708G11  C06Q48386   9.988   8.967   5.667
   708G11  C06848387   9.668   8.933   5.850
   708G11  C06748388   9.612   8.868   5.958
   708G11  C06348389   9.830   8.555   6.119
   708G11  C06C48390   9.903   8.434   6.149
   708G11  C06D48391   9.853   8.349   6.242
   708G11  C06E48392   9.923   8.240   6.296
   708G11  C07Q48393  10.050   8.216   6.260
   708G11  C07P48394  10.108   8.305   6.169
   708G11  C07T48395  10.235   8.278   6.120
   708G11  C07U48396  10.291   8.361   6.025
   708G11  C07V48397  10.414   8.327   5.971
   708G11  C08448398  10.479   8.209   6.015
   708G11  C08C48399  10.420   8.133   6.113
   708G11  C08B48400  10.482   8.019   6.157
   708G11  C08A48401  10.426   7.953   6.256
   708G11  C08948402  10.306   7.976   6.310
   708G11  C08848403  10.250   7.896   6.417
   708G11  C08748404  10.126   7.920   6.468
   708G11  C08648405  10.057   8.024   6.411
   708G11  C08X48406  10.325   7.785   6.463
   708G11  C08T48407  10.443   7.747   6.389
   708G11  C08D48408  10.241   8.087   6.264
   708G11  C08U48409  10.487   7.835   6.299
   708G11  C08V48410  10.619   7.803   6.250
   708G11  C0CY48411  10.680   7.883   6.154
   708G11  C0CX48412  10.796   7.837   6.106
   708G11  C0CW48413  10.854   7.908   5.998
   708G11  C0CV48414  10.785   8.015   5.948
   708G11  C0D448415  10.668   8.062   6.009
   708G11  C0CU48416  10.839   8.086   5.839
   708G11  C0CT48417  10.953   8.044   5.772
   708G11  C0CS48418  11.021   7.936   5.821
   708G11  C0D648419  10.772   8.201   5.803
   708G11  C0EC48420  10.654   8.248   5.861
   708G11  C07X48421  10.594   8.364   5.816
   708G11  C0DL48422  10.818   8.260   5.688
   708G11  C0DK48423  10.758   8.376   5.653
   708G11  C0DN48424  10.821   8.415   5.543
   708G11  C0D848425  10.933   8.231   5.611
   708G11  C08W48426  10.662   7.684   6.301
   708G11  C0CQ48427  10.795   7.643   6.263
   708G11  C09348428  10.605   7.986   6.103
   708G11  C09248429  10.602   8.173   5.961
   708G11  C08548430  10.301   8.169   6.167
   708G11  C07S48431  10.117   8.107   6.314
   708G11  C06F48432   9.862   8.155   6.391
   708G11  C07O48433  10.035   8.409   6.105
   708G11  C07N48434  10.096   8.490   6.016
   708G11  C05D48435   9.735   8.380   6.295
   708G11  C05C48436   9.685   8.305   6.391
   708G11  C05N48437   9.588   8.379   6.453
   708G11  C05M48438   9.417   8.680   6.294
   708G11  C05I48439   9.418   8.838   6.113
   708G11  C06148440   9.281   9.030   5.962
   708G11  C02Q48441   9.068   9.131   5.915
   708G11  C02O48442   8.781   9.098   5.966
   708G11  C03Q48443   9.024   8.945   6.202
   708G11  C03O48444   8.966   8.758   6.339
   708G11  C03L48445   8.646   8.614   6.431
   708G11  C02S48446   8.666   8.888   6.173
   708G11  C02T48447   8.391   8.836   6.160
   708G11  C03K48448   8.501   8.589   6.423
   708G11  C03I48449   8.254   8.812   6.153
   708G11  C03G48450   7.980   8.759   6.161
   708G11  H00D48451   7.872   8.747   6.161
   708G11  C03J48452   8.221   8.545   6.401
   708G11  C03W48453   8.080   8.335   6.533
   708G11  C04I48454   8.280   8.255   6.619
   708G11  C04K48455   8.438   8.080   6.761
   708G11  C04N48456   8.531   7.995   6.818
   708G11  C04X48457   8.766   7.924   6.854
   708G11  C05048458   8.997   7.832   6.842
   708G11  C05W48459   9.082   8.092   6.773
   708G11  C05S48460   9.473   7.803   6.776
   708G11  C05R48461   9.366   8.145   6.730
   708G11  C05O48462   9.513   8.315   6.551
   708G11  C05B48463   9.744   8.190   6.441
   708G11  C05A48464   9.646   7.938   6.681
   708G11  C07R48465   9.922   8.042   6.445
   708G11  C08N48466  10.066   7.830   6.562
   708G11  C08M48467  10.147   7.725   6.616
   708G11  C08L48468  10.094   7.647   6.722
   708G11  C09148469   9.614   7.805   6.711
   708G11  C09K48470   9.702   7.448   6.791
   708G11  H00M48471   9.621   7.410   6.732
   708G11  C08K48472   9.954   7.656   6.745
   708G11  C09J48473   9.811   7.361   6.840
   708G11  C09I48474   9.862   7.227   6.850
   708G11  C09L48475   9.796   7.102   6.861
   708G11  H00N48476   9.689   7.093   6.849
   708G11  C09Q48477   9.876   6.991   6.883
   708G11  H00O48478   9.826   6.895   6.891
   708G11  O00B48479  10.014   6.992   6.883
   708G11  C09G48480  10.085   7.112   6.878
   708G11  C09F48481  10.228   7.099   6.884
   708G11  O00A48482  10.272   6.976   6.918
   708G11  C09P48483  10.406   6.955   6.918
   708G11  H00P48484  10.447   6.877   6.980
   708G11  C09O48485  10.499   7.042   6.850
   708G11  C09D48486  10.453   7.179   6.829
   708G11  C09C48487  10.528   7.286   6.767
   708G11  C09N48488  10.646   7.295   6.684
   708G11  C09T48489  10.707   7.180   6.622
   708G11  C09S48490  10.704   7.056   6.699
   708G11  C0CP48491  10.806   6.992   6.634
   708G11  C0CN48492  10.872   7.063   6.534
   708G11  C0CO48493  10.963   6.993   6.456
   708G11  H01448494  11.009   7.042   6.371
   708G11  C0CZ48495  11.013   6.871   6.512
   708G11  H01548496  11.096   6.818   6.470
   708G11  C0D048497  10.971   6.824   6.638
   708G11  C0G548498  11.040   6.727   6.717
   708G11  H01F48499  11.136   6.686   6.687
   708G11  C0G448500  10.998   6.694   6.839
   708G11  H01G48501  11.063   6.631   6.899
   708G11  O00H48502  10.880   6.732   6.895
   708G11  C0D248503  10.812   6.823   6.817
   708G11  C09V48504  10.692   6.885   6.868
   708G11  H00Q48505  10.641   6.846   6.955
   708G11  C0D148506  10.856   6.878   6.699
   708G11  C09R48507  10.633   7.002   6.811
   708G11  C09H48508  10.005   7.230   6.865
   708G11  C09E48509  10.321   7.205   6.859
   708G11  C09B48510  10.492   7.414   6.774
   708G11  C08Z48511  10.180   7.545   6.774
   708G11  C08O48512  10.280   7.710   6.575
   708G11  C09A48513  10.566   7.502   6.691
   708G11  C08S48514  10.554   7.650   6.386
   708G11  C09948515  10.667   7.429   6.633
   708G11  C09U48516  10.822   7.193   6.532
   708G11  C0BO48517  11.174   7.353   6.248
   708G11  C0CL48518  10.852   7.524   6.310
   708G11  C0D348519  10.855   7.721   6.158
   708G11  C0D548520  10.967   7.863   5.934
   708G11  C0BR48521  11.154   7.529   6.081
   708G11  C0BQ48522  11.219   7.415   6.136
   708G11  C0BL48523  11.366   7.197   6.244
   708G11  C0AF48524  11.577   7.102   6.112
   708G11  C0BH48525  11.494   7.382   5.893
   708G11  C0BG48526  11.538   7.439   5.775
   708G11  C0BD48527  11.727   7.287   5.768
   708G11  C0AG48528  11.690   7.068   6.050
   708G11  C0AI48529  11.849   6.885   6.022
   708G11  C0AV48530  12.013   6.739   5.873
   708G11  C0BB48531  12.022   7.075   5.716
   708G11  O00C48532  12.136   6.741   5.658
   708G11  C0BC48533  12.063   7.104   5.590
   708G11  C0B948534  11.837   7.234   5.705
   708G11  O00E48535  11.835   7.426   5.396
   708G11  C0CA48536  11.790   7.550   5.346
   708G11  O00F48537  11.830   7.589   5.238
   708G11  C0BF48538  11.650   7.385   5.709
   708G11  C0C548539  11.677   7.606   5.417
   708G11  C0C448540  11.630   7.726   5.367
   708G11  H01148541  11.669   7.775   5.279
   708G11  C0C848542  11.469   7.543   5.718
   708G11  C0C248543  11.514   7.780   5.435
   708G11  C0C348544  11.461   7.906   5.409
   708G11  C0DY48545  11.494   7.997   5.305
   708G11  H01648546  11.569   7.998   5.227
   708G11  C0DX48547  11.410   8.113   5.317
   708G11  C0DW48548  11.446   8.236   5.262
   708G11  C0BY48549  11.307   7.721   5.741
   708G11  C0DB48550  11.357   7.964   5.482
   708G11  C0CC48551  11.135   7.888   5.753
   708G11  C0D748552  11.006   8.119   5.659
   708G11  C0DZ48553  11.309   8.085   5.418
   708G11  C0DM48554  10.932   8.333   5.512
   708G11  C0DQ48555  11.231   8.370   5.320
   708G11  C0DV48556  11.351   8.343   5.257
   708G11  C0E048557  11.567   8.284   5.187
   708G11  C0FO48558  11.651   8.613   5.117
   708G11  C0E348559  11.710   8.282   5.225
   708G11  H01748560  11.765   8.210   5.283
   708G11  C0GV48561  11.771   8.636   5.181
   708G11  C0ES48562  11.551   8.708   5.131
   708G11  C0GQ48563  11.755   8.991   5.257
   708G11  C0FJ48564  11.466   9.189   5.150
   708G11  C0ED48565  11.357   8.921   5.145
   708G11  C0ER48566  11.097   9.078   4.956
   708G11  C0EP48567  10.923   8.972   5.072
   708G11  C0E648568  11.188   8.726   5.189
   708G11  C0DE48569  10.935   8.593   5.320
   708G11  C0EA48570  10.721   8.893   5.222
   708G11  C0DF48571  10.799   8.570   5.357
   708G11  C08048572  10.566   8.808   5.493
   708G11  C0DO48573  10.758   8.520   5.478
   708G11  C0DJ48574  10.648   8.433   5.715
   708G11  C07K48575  10.404   8.718   5.689
   708G11  C07W48576  10.476   8.406   5.876
   708G11  C08348577  10.227   8.468   5.973
   708G11  C07J48578  10.279   8.755   5.748
   708G11  C06O48579  10.007   8.792   5.832
   708G11  C06M48580  10.021   8.601   5.970
   718G11  C07148581   5.217  10.106  13.557
   718G11  C07L48582   5.189  10.231  13.611
   718G11  C07M48583   5.095  10.248  13.712
   718G11  C07Y48584   5.070  10.376  13.770
   718G11  C08148585   5.141  10.488  13.727
   718G11  C08248586   5.111  10.612  13.797
   718G11  C0DI48587   5.176  10.744  13.779
   718G11  C0DH48588   5.260  10.803  13.685
   718G11  C0DG48589   5.316  10.929  13.733
   718G11  C0E948590   5.342  11.050  13.651
   718G11  C0E848591   5.292  11.157  13.748
   718G11  C0E748592   5.321  11.298  13.739
   718G11  C0EB48593   5.359  11.365  13.617
   718G11  C0EF48594   5.372  11.505  13.584
   718G11  C0EE48595   5.399  11.621  13.661
   718G11  C0FD48596   5.467  11.723  13.589
   718G11  C0FE48597   5.562  11.713  13.477
   718G11  H01B48598   5.597  11.618  13.439
   718G11  C0FF48599   5.598  11.822  13.402
   718G11  H01A48600   5.662  11.802  13.317
   718G11  C0FG48601   5.552  11.944  13.441
   718G11  H01848602   5.567  12.030  13.377
   718G11  C0FH48603   5.466  11.963  13.552
   718G11  C0FI48604   5.406  12.093  13.587
   718G11  H01948605   5.442  12.180  13.534
   718G11  O00K48606   5.324  12.102  13.693
   718G11  C0FL48607   5.317  11.998  13.781
   718G11  C0FK48608   5.368  11.870  13.751
   718G11  C0FM48609   5.358  11.766  13.844
   718G11  C0FN48610   5.335  11.797  13.978
   718G11  C0FP48611   5.292  11.929  14.009
   718G11  C0GO48612   5.247  11.966  14.137
   718G11  C0GN48613   5.184  12.085  14.167
   718G11  C0GR48614   5.179  12.180  14.070
   718G11  C0GS48615   5.110  12.302  14.089
   718G11  H01Q48616   5.105  12.367  14.003
   718G11  C0GT48617   5.055  12.326  14.213
   718G11  H01O48618   5.002  12.417  14.239
   718G11  C0GU48619   5.054  12.225  14.315
   718G11  H01P48620   5.012  12.253  14.411
   718G11  O00L48621   5.224  12.149  13.946
   718G11  C0GM48622   5.120  12.098  14.294
   718G11  C0GL48623   5.136  11.993  14.391
   718G11  H01R48624   5.092  12.005  14.489
   718G11  C0GK48625   5.209  11.873  14.364
   718G11  C0GP48626   5.222  11.742  14.423
   718G11  C0E248627   5.307  11.665  14.329
   718G11  C0E148628   5.269  11.527  14.336
   718G11  C0DU48629   5.232  11.451  14.223
   718G11  C0DT48630   5.282  11.454  14.092
   718G11  C0E448631   5.328  11.565  14.032
   718G11  C0E548632   5.340  11.528  13.896
   718G11  C0DS48633   5.246  11.358  13.991
   718G11  C0DR48634   5.150  11.266  14.028
   718G11  C0DD48635   5.118  11.150  13.960
   718G11  C0DC48636   5.025  11.080  14.050
   718G11  C0DP48637   4.990  11.158  14.171
   718G11  C0DA48638   4.886  11.130  14.279
   718G11  C0D948639   4.795  11.011  14.298
   718G11  C0CR48640   4.701  11.012  14.405
   718G11  C0C048641   4.686  11.125  14.491
   718G11  C0BZ48642   4.601  11.130  14.599
   718G11  C0C148643   4.591  11.243  14.677
   718G11  C0C748644   4.509  11.246  14.787
   718G11  C0C648645   4.495  11.361  14.871
   718G11  C0C948646   4.423  11.345  14.988
   718G11  C0B848647   4.410  11.461  15.072
   718G11  C0B748648   4.367  11.452  15.208
   718G11  C0B648649   4.354  11.546  15.315
   718G11  C0B548650   4.334  11.689  15.304
   718G11  H00Z48651   4.352  11.738  15.209
   718G11  C0B448652   4.261  11.726  15.425
   718G11  H01048653   4.214  11.819  15.452
   718G11  C0B348654   4.237  11.603  15.506
   718G11  C0AP48655   4.164  11.525  15.609
   718G11  C0AQ48656   4.196  11.390  15.583
   718G11  C0AR48657   4.112  11.276  15.610
   718G11  C0AS48658   4.134  11.176  15.520
   718G11  C0AT48659   4.211  11.179  15.408
   718G11  C0BA48660   4.283  11.290  15.378
   718G11  C0AU48661   4.195  11.077  15.314
   718G11  C0BE48662   4.251  11.092  15.189
   718G11  C0BI48663   4.221  10.996  15.092
   718G11  C0BJ48664   4.138  10.892  15.114
   718G11  C0BK48665   4.114  10.796  15.020
   718G11  C0BW48666   4.186  10.802  14.902
   718G11  C0BV48667   4.273  10.908  14.879
   718G11  C0BU48668   4.357  10.910  14.765
   718G11  C0BX48669   4.437  11.021  14.733
   718G11  C0BT48670   4.367  10.798  14.687
   718G11  C0CD48671   4.456  10.793  14.583
   718G11  C0CB48672   4.532  10.906  14.544
   718G11  C0CE48673   4.470  10.669  14.517
   718G11  C0CK48674   4.398  10.557  14.558
   718G11  C0BS48675   4.299  10.568  14.653
   718G11  C0CJ48676   4.214  10.462  14.677
   718G11  C0BP48677   4.105  10.482  14.762
   718G11  C0CI48678   3.998  10.396  14.761
   718G11  C0CH48679   3.887  10.429  14.845
   718G11  H01248680   3.792  10.378  14.837
   718G11  C0BN48681   3.894  10.522  14.950
   718G11  C0CG48682   3.804  10.528  15.059
   718G11  C0CF48683   3.694  10.438  15.074
   718G11  H01348684   3.685  10.352  15.010
   718G11  O00G48685   3.619  10.433  15.188
   718G11  C0AA48686   3.649  10.522  15.288
   718G11  C0A948687   3.568  10.513  15.396
   718G11  H00U48688   3.483  10.447  15.407
   718G11  C0A848689   3.589  10.605  15.501
   718G11  H00V48690   3.513  10.603  15.578
   718G11  C0A748691   3.682  10.708  15.503
   718G11  C0A648692   3.775  10.710  15.391
   718G11  C0A548693   3.887  10.794  15.373
   718G11  C0A448694   3.920  10.893  15.474
   718G11  C0A348695   3.857  10.946  15.591
   718G11  C0A248696   3.721  10.933  15.624
   718G11  C0A148697   3.671  10.994  15.743
   718G11  C0A048698   3.689  11.122  15.809
   718G11  C09Z48699   3.601  11.141  15.922
   718G11  C09Y48700   3.599  11.274  15.990
   718G11  H00Y48701   3.525  11.298  16.066
   718G11  C09X48702   3.695  11.370  15.953
   718G11  C09W48703   3.688  11.496  16.021
   718G11  H00R48704   3.620  11.516  16.102
   718G11  C0AX48705   3.763  11.600  15.977
   718G11  H00S48706   3.767  11.691  16.036
   718G11  C0AW48707   3.846  11.580  15.871
   718G11  H00T48708   3.909  11.660  15.833
   718G11  C0AN48709   3.866  11.455  15.810
   718G11  C0AO48710   3.967  11.435  15.715
   718G11  C0AM48711   3.788  11.345  15.848
   718G11  C0B248712   3.513  11.046  15.983
   718G11  O00D48713   3.452  11.059  16.089
   718G11  C0B148714   3.498  10.922  15.912
   718G11  H00W48715   3.429  10.850  15.954
   718G11  C0AL48716   3.792  11.219  15.780
   718G11  C0AK48717   3.900  11.198  15.692
   718G11  C0B048718   3.579  10.902  15.796
   718G11  C0AZ48719   3.571  10.785  15.723
   718G11  H00X48720   3.513  10.697  15.745
   718G11  C0AJ48721   3.928  11.071  15.624
   718G11  C0AH48722   4.032  10.972  15.449
   718G11  C0AE48723   3.968  10.792  15.260
   718G11  C0AD48724   3.937  10.701  15.160
   718G11  C0AY48725   3.660  10.806  15.607
   718G11  C0AB48726   3.751  10.620  15.284
   718G11  C0AC48727   3.824  10.618  15.166
   718G11  C0BM48728   4.004  10.606  14.939
   718G11  C0CM48729   4.005  10.296  14.668
   718G11  C09M48730   4.122  10.238  14.619
   718G11  C09848731   4.119  10.100  14.589
   718G11  C08R48732   4.212  10.015  14.515
   718G11  C08Q48733   4.167   9.884  14.494
   718G11  C08P48734   4.188   9.779  14.395
   718G11  C08Y48735   4.083   9.681  14.383
   718G11  C09748736   3.955   9.721  14.425
   718G11  C09648737   3.855   9.683  14.343
   718G11  C09048738   3.915   9.578  14.262
   718G11  C09548739   3.857   9.526  14.138
   718G11  C09448740   3.925   9.434  14.051
   718G11  C08J48741   4.062   9.393  14.043
   718G11  C08I48742   4.094   9.362  13.908
   718G11  C08H48743   4.239   9.373  13.884
   718G11  C08G48744   4.285   9.453  13.997
   718G11  C08F48745   4.407   9.522  14.023
   718G11  C08E48746   4.522   9.497  13.947
   718G11  C05948747   4.545   9.376  13.873
   718G11  C05848748   4.669   9.355  13.803
   718G11  C05748749   4.707   9.246  13.728
   718G11  C05648750   4.608   9.142  13.731
   718G11  C05548751   4.490   9.142  13.808
   718G11  C05448752   4.395   9.066  13.746
   718G11  C05348753   4.454   9.008  13.626
   718G11  C05248754   4.393   8.938  13.518
   718G11  C05148755   4.242   8.930  13.515
   718G11  C05U48756   4.144   8.986  13.607
   718G11  C05T48757   4.151   9.081  13.707
   718G11  C06K48758   4.036   9.064  13.789
   718G11  H00J48759   4.034   9.114  13.884
   718G11  C06L48760   3.937   8.982  13.716
   718G11  H00I48761   3.837   8.959  13.750
   718G11  C05V48762   4.011   8.950  13.597
   718G11  C06J48763   3.963   8.868  13.490
   718G11  H00K48764   3.860   8.838  13.484
   718G11  C05X48765   4.049   8.832  13.387
   718G11  C06I48766   4.010   8.771  13.268
   718G11  H00L48767   3.906   8.744  13.262
   718G11  C04Z48768   4.087   8.732  13.160
   718G11  C06H48769   4.024   8.680  13.040
   718G11  H00H48770   3.917   8.670  13.036
   718G11  C04Y48771   4.110   8.653  12.929
   718G11  C06G48772   4.045   8.595  12.813
   718G11  O00948773   3.927   8.561  12.806
   718G11  O00848774   4.132   8.564  12.708
   718G11  C04P48775   4.264   8.591  12.718
   718G11  C04J48776   4.358   8.566  12.606
   718G11  C04Q48777   4.329   8.526  12.472
   718G11  H00E48778   4.224   8.518  12.448
   718G11  C04M48779   4.420   8.508  12.372
   718G11  C04R48780   4.404   8.481  12.236
   718G11  H00F48781   4.301   8.482  12.201
   718G11  C04S48782   4.498   8.448  12.149
   718G11  H00G48783   4.476   8.420  12.047
   718G11  O00748784   4.631   8.446  12.184
   718G11  C03V48785   4.659   8.482  12.311
   718G11  C03U48786   4.793   8.513  12.345
   718G11  O00648787   4.898   8.471  12.262
   718G11  C03F48788   5.016   8.526  12.273
   718G11  C03E48789   5.043   8.622  12.365
   718G11  C03D48790   4.951   8.640  12.474
   718G11  C03C48791   4.979   8.723  12.579
   718G11  C03B48792   5.099   8.799  12.566
   718G11  C03A48793   5.145   8.871  12.674
   718G11  C03948794   5.073   8.880  12.794
   718G11  C03848795   5.153   8.977  12.870
   718G11  C03748796   5.252   9.018  12.779
   718G11  C03648797   5.348   9.106  12.819
   718G11  C02R48798   5.435   9.172  12.735
   718G11  C03548799   5.460   9.285  12.818
   718G11  C03R48800   5.413   9.280  12.942
   718G11  C03S48801   5.387   9.393  13.018
   718G11  C04948802   5.297   9.383  13.119
   718G11  C04848803   5.224   9.265  13.127
   718G11  C03P48804   5.229   9.154  13.033
   718G11  C04748805   5.143   9.259  13.244
   718G11  C04648806   5.053   9.156  13.277
   718G11  C04548807   5.010   9.042  13.211
   718G11  C03T48808   5.039   8.994  13.083
   718G11  C04448809   4.947   8.887  13.057
   718G11  C04348810   4.869   8.868  13.169
   718G11  C04248811   4.739   8.807  13.149
   718G11  C04148812   4.756   8.774  13.007
   718G11  C04048813   4.658   8.718  12.922
   718G11  C03Z48814   4.669   8.676  12.784
   718G11  C04H48815   4.541   8.637  12.743
   718G11  C04G48816   4.455   8.667  12.848
   718G11  C03N48817   4.774   8.673  12.680
   718G11  C03Y48818   4.732   8.605  12.560
   718G11  C03X48819   4.597   8.569  12.529
   718G11  C04F48820   4.518   8.712  12.958
   718G11  C04E48821   4.439   8.731  13.079
   718G11  C04O48822   4.301   8.710  13.070
   718G11  C04D48823   4.495   8.779  13.204
   718G11  C04V48824   4.405   8.823  13.306
   718G11  C04W48825   4.266   8.811  13.295
   718G11  C04C48826   4.628   8.817  13.236
   718G11  C04L48827   4.614   8.883  13.367
   718G11  C04U48828   4.716   8.957  13.434
   718G11  C05Q48829   4.703   9.031  13.549
   718G11  C05P48830   4.806   9.126  13.557
   718G11  C04T48831   4.887   9.112  13.449
   718G11  C04B48832   4.838   9.002  13.379
   718G11  C03M48833   4.889   8.819  12.943
   718G11  C04A48834   4.902   8.967  13.264
   718G11  C05H48835   4.996   9.192  13.397
   718G11  C05G48836   5.050   9.321  13.434
   718G11  C05F48837   5.010   9.388  13.553
   718G11  C05E48838   5.038   9.525  13.579
   718G11  C05L48839   5.116   9.634  13.518
   718G11  C05K48840   5.201   9.613  13.405
   718G11  C05J48841   5.213   9.495  13.321
   718G11  C06648842   5.277   9.730  13.365
   718G11  C06548843   5.253   9.854  13.428
   718G11  C06448844   5.164   9.873  13.532
   718G11  C06N48845   5.326   9.967  13.387
   718G11  C06948846   5.417   9.960  13.282
   718G11  C06P48847   5.486  10.073  13.237
   718G11  C06R48848   5.555  10.075  13.116
   718G11  C06B48849   5.568   9.957  13.048
   718G11  C06S48850   5.638   9.955  12.921
   718G11  C02G48851   5.649   9.839  12.850
   718G11  C02F48852   5.713   9.839  12.726
   718G11  C02748853   5.759   9.956  12.673
   718G11  C02648854   5.818   9.961  12.548
   718G11  C00E48855   5.856  10.078  12.491
   718G11  C00D48856   5.905  10.076  12.359
   718G11  C00C48857   5.942  10.193  12.308
   718G11  C00B48858   5.933  10.318  12.368
   718G11  C01548859   5.880  10.318  12.500
   718G11  C07F48860   5.858  10.434  12.563
   718G11  C07E48861   5.805  10.436  12.688
   718G11  C06W48862   5.772  10.315  12.751
   718G11  C06V48863   5.785  10.196  12.683
   718G11  C06X48864   5.713  10.316  12.878
   718G11  C07B48865   5.681  10.438  12.940
   718G11  C07C48866   5.708  10.559  12.873
   718G11  C0FU48867   5.679  10.685  12.931
   718G11  C0F748868   5.707  10.804  12.866
   718G11  C0F648869   5.667  10.920  12.925
   718G11  C0F848870   5.671  11.033  12.851
   718G11  C0F948871   5.624  11.154  12.910
   718G11  C0FA48872   5.622  11.271  12.831
   718G11  C0FZ48873   5.670  11.267  12.703
   718G11  C0G048874   5.649  11.377  12.622
   718G11  C0GD48875   5.571  11.479  12.655
   718G11  C0FC48876   5.533  11.486  12.788
   718G11  C0GH48877   5.467  11.598  12.837
   718G11  C0EY48878   5.419  11.610  12.967
   718G11  C0EX48879   5.349  11.725  13.013
   718G11  C0EW48880   5.316  11.728  13.149
   718G11  C0FR48881   5.262  11.845  13.197
   718G11  H01D48882   5.215  11.856  13.294
   718G11  C0FS48883   5.240  11.955  13.114
   718G11  H01C48884   5.186  12.040  13.153
   718G11  C0GJ48885   5.273  11.946  12.976
   718G11  H01N48886   5.257  12.033  12.913
   718G11  C0EV48887   5.339  11.618  13.230
   718G11  C0FT48888   5.303  11.625  13.369
   718G11  H01E48889   5.261  11.712  13.417
   718G11  C0EU48890   5.398  11.503  13.178
   718G11  C0ET48891   5.408  11.389  13.254
   718G11  C0EI48892   5.457  11.271  13.218
   718G11  C0F148893   5.515  11.272  13.086
   718G11  C0F048894   5.509  11.387  13.005
   718G11  C0EH48895   5.466  11.157  13.305
   718G11  C0EG48896   5.415  11.165  13.439
   718G11  C0EJ48897   5.515  11.038  13.248
   718G11  C0F348898   5.564  11.039  13.116
   718G11  C0EK48899   5.494  10.918  13.319
   718G11  C0EL48900   5.436  10.919  13.451
   718G11  C0EM48901   5.405  10.783  13.495
   718G11  C0EN48902   5.445  10.678  13.422
   718G11  C07I48903   5.400  10.559  13.470
   718G11  C07448904   5.420  10.434  13.415
   718G11  C07348905   5.359  10.323  13.468
   718G11  C07248906   5.380  10.203  13.412
   718G11  C07548907   5.492  10.437  13.298
   718G11  C07648908   5.531  10.559  13.240
   718G11  C07848909   5.590  10.561  13.123
   718G11  C07G48910   5.517  10.313  13.246
   718G11  C07048911   5.582  10.313  13.121
   718G11  C07Z48912   5.318  10.580  13.581
   718G11  C07748913   5.508  10.678  13.297
   718G11  C0EO48914   5.534  10.803  13.249
   718G11  C0F448915   5.593  10.804  13.121
   718G11  C0EQ48916   5.376  11.404  13.387
   718G11  C0FQ48917   5.331  11.830  12.927
   718G11  C0GI48918   5.370  11.810  12.796
   718G11  H01L48919   5.345  11.885  12.722
   718G11  C0EZ48920   5.445  11.503  13.051
   718G11  C0GG48921   5.433  11.703  12.745
   718G11  C0GF48922   5.451  11.680  12.607
   718G11  H01M48923   5.413  11.758  12.543
   718G11  C0GE48924   5.518  11.573  12.564
   718G11  H01K48925   5.541  11.564  12.459
   718G11  O00J48926   5.686  11.376  12.486
   718G11  C0GA48927   5.751  11.266  12.436
   718G11  C0G948928   5.786  11.258  12.303
   718G11  H01H48929   5.758  11.329  12.227
   718G11  C0G848930   5.831  11.145  12.241
   718G11  C0G748931   5.864  11.137  12.104
   718G11  H01I48932   5.842  11.227  12.048
   718G11  O00I48933   5.905  11.026  12.039
   718G11  C0G648934   5.920  10.916  12.128
   718G11  H01J48935   5.939  10.833  12.061
   718G11  C02D48936   5.897  10.911  12.267
   718G11  C02C48937   5.906  10.792  12.345
   718G11  C01748938   5.950  10.671  12.292
   718G11  C01648939   5.933  10.553  12.362
   718G11  O00148940   6.018  10.664  12.174
   718G11  C01848941   6.032  10.552  12.098
   718G11  C00948942   6.015  10.429  12.167
   718G11  C00848943   6.031  10.296  12.106
   718G11  C00748944   6.066  10.237  11.977
   718G11  C00648945   6.082  10.319  11.861
   718G11  C00548946   6.102  10.268  11.727
   718G11  C00448947   6.096  10.129  11.675
   718G11  C00348948   6.058   9.995  11.739
   718G11  C00248949   6.046   9.879  11.660
   718G11  C00P48950   5.993   9.760  11.714
   718G11  C00O48951   5.965   9.643  11.642
   718G11  C00N48952   5.914   9.524  11.698
   718G11  C01048953   5.887   9.415  11.616
   718G11  C01148954   5.826   9.302  11.671
   718G11  C01Q48955   5.799   9.196  11.585
   718G11  C01U48956   5.822   9.207  11.446
   718G11  C01248957   5.890   9.324  11.400
   718G11  H00048958   5.929   9.326  11.300
   718G11  C01V48959   5.782   9.098  11.366
   718G11  H00748960   5.793   9.100  11.258
   718G11  O00548961   5.724   8.983  11.412
   718G11  C01W48962   5.708   8.973  11.549
   718G11  C03148963   5.648   8.857  11.604
   718G11  C03248964   5.634   8.841  11.741
   718G11  H00A48965   5.607   8.747  11.787
   718G11  C03348966   5.665   8.949  11.822
   718G11  H00B48967   5.660   8.938  11.929
   718G11  C01O48968   5.711   9.075  11.774
   718G11  C01N48969   5.723   9.178  11.858
   718G11  C01M48970   5.682   9.182  12.000
   718G11  C01L48971   5.600   9.108  12.106
   718G11  C01K48972   5.628   9.189  12.221
   718G11  C01Y48973   5.565   9.186  12.349
   718G11  C02I48974   5.479   9.086  12.376
   718G11  C02N48975   5.425   9.071  12.508
   718G11  C02M48976   5.326   8.972  12.533
   718G11  C02L48977   5.288   8.883  12.432
   718G11  C02K48978   5.357   8.889  12.303
   718G11  C02U48979   5.321   8.790  12.208
   718G11  C02V48980   5.239   8.687  12.246
   718G11  C03H48981   5.229   8.571  12.167
   718G11  H00C48982   5.296   8.543  12.086
   718G11  C02W48983   5.354   8.813  12.072
   718G11  C02X48984   5.416   8.933  12.050
   718G11  C02Y48985   5.390   8.946  11.912
   718G11  H00848986   5.419   9.024  11.843
   718G11  C02Z48987   5.339   8.813  11.853
   718G11  O00448988   5.339   8.776  11.737
   718G11  O00348989   5.315   8.742  11.967
   718G11  C02J48990   5.448   8.990  12.274
   718G11  C01Z48991   5.604   9.283  12.443
   718G11  C02048992   5.677   9.392  12.402
   718G11  C01I48993   5.739   9.392  12.288
   718G11  C01H48994   5.789   9.506  12.231
   718G11  C00K48995   5.818   9.512  12.098
   718G11  C01S48996   5.809   9.401  12.016
   718G11  C01448997   5.826   9.404  11.882
   718G11  C00J48998   5.872   9.627  12.042
   718G11  C00I48999   5.875   9.738  12.123
   718G11  C00H49000   5.837   9.739  12.255
   718G11  C00G49001   5.845   9.849  12.337
   718G11  C00S49002   5.921   9.853  12.063
   718G11  C00T49003   5.923   9.960  12.147
   718G11  C00U49004   5.981  10.075  12.101
   718G11  C00R49005   5.964   9.865  11.928
   718G11  C00L49006   5.907   9.636  11.907
   718G11  C02849007   5.801   9.617  12.310
   718G11  C02349008   5.761   9.614  12.442
   718G11  C02449009   5.768   9.726  12.523
   718G11  C02149010   5.702   9.500  12.486
   718G11  C02249011   5.648   9.496  12.608
   718G11  C02H49012   5.654   9.611  12.694
   718G11  C03049013   5.598   9.615  12.822
   718G11  C03449014   5.538   9.502  12.864
   718G11  C02P49015   5.582   9.390  12.649
   718G11  C02B49016   5.554   9.280  12.567
   718G11  C01J49017   5.721   9.285  12.200
   718G11  C01X49018   5.497   9.012  12.135
   718G11  C01T49019   5.745   9.290  12.067
   718G11  H00949020   5.623   8.770  11.545
   718G11  C01P49021   5.740   9.079  11.637
   718G11  C01R49022   5.792   9.292  11.806
   718G11  C00Z49023   5.925   9.425  11.482
   718G11  O00049024   5.983   9.536  11.428
   718G11  C00M49025   5.883   9.518  11.829
   718G11  C00Y49026   6.013   9.643  11.505
   718G11  C01349027   6.073   9.756  11.451
   718G11  H00149028   6.083   9.744  11.344
   718G11  C00Q49029   5.955   9.753  11.847
   718G11  C00149030   6.084   9.877  11.523
   718G11  C00049031   6.128   9.999  11.467
   718G11  H00649032   6.174   9.993  11.369
   718G11  C00W49033   6.017   9.983  11.872
   718G11  C01G49034   6.131  10.117  11.540
   718G11  H00549035   6.160  10.199  11.476
   718G11  C01C49036   6.112  10.382  11.641
   718G11  H00249037   6.119  10.384  11.533
   718G11  C01B49038   6.107  10.499  11.726
   718G11  C01D49039   6.123  10.634  11.679
   718G11  H00349040   6.146  10.664  11.577
   718G11  C01E49041   6.097  10.725  11.773
   718G11  H00449042   6.106  10.831  11.751
   718G11  O00249043   6.065  10.699  11.905
   718G11  C01A49044   6.083  10.461  11.861
   718G11  C00V49045   6.029  10.098  11.967
   718G11  C01949046   6.065  10.565  11.957
   718G11  C02E49047   5.859  10.797  12.478
   718G11  C0FX49048   5.823  10.919  12.532
   718G11  C0FW49049   5.770  10.917  12.662
   718G11  C0GB49050   5.819  11.034  12.454
   718G11  C0G349051   5.846  10.675  12.550
   718G11  C07H49052   5.791  10.679  12.678
   718G11  C0GC49053   5.851  11.031  12.321
   718G11  C0G249054   5.770  11.151  12.516
   718G11  C0G149055   5.724  11.153  12.650
   718G11  C0FB49056   5.559  11.385  12.875
   718G11  C0F249057   5.569  11.152  13.037
   718G11  C0FY49058   5.726  11.035  12.722
   718G11  C0F549059   5.609  10.921  13.054
   718G11  C0FV49060   5.760  10.800  12.738
   718G11  C07949061   5.619  10.681  13.056
   718G11  C07A49062   5.618  10.437  13.062
   718G11  C06Y49063   5.668  10.194  12.936
   718G11  C07D49064   5.774  10.560  12.749
   718G11  C01F49065   5.879  10.554  12.493
   718G11  C00A49066   5.963  10.434  12.297
   718G11  C00X49067   5.994  10.187  12.182
   718G11  C00F49068   5.894   9.963  12.280
   718G11  C02949069   5.847  10.196  12.558
   718G11  C02549070   5.814   9.845  12.471
   718G11  C06U49071   5.743  10.077  12.740
   718G11  C02A49072   5.710   9.723  12.649
   718G11  C05Y49073   5.592   9.728  12.901
   718G11  C05Z49074   5.521   9.728  13.022
   718G11  C06049075   5.458   9.612  13.064
   718G11  C06249076   5.375   9.609  13.179
   718G11  C06T49077   5.685  10.074  12.867
   718G11  C06A49078   5.512   9.840  13.096
   718G11  C06Z49079   5.601  10.192  13.057
   718G11  C06Q49080   5.459  10.197  13.295
   718G11  C06849081   5.435   9.841  13.210
   718G11  C06749082   5.363   9.725  13.253
   718G11  C06349083   5.090   9.762  13.579
   718G11  C06C49084   4.988   9.784  13.678
   718G11  C06D49085   4.914   9.684  13.732
   718G11  C06E49086   4.813   9.692  13.825
   718G11  C07Q49087   4.789   9.810  13.877
   718G11  C07P49088   4.867   9.920  13.833
   718G11  C07T49089   4.850  10.038  13.899
   718G11  C07U49090   4.922  10.149  13.852
   718G11  C07V49091   4.904  10.271  13.916
   718G11  C08449092   4.818  10.278  14.030
   718G11  C08C49093   4.744  10.167  14.066
   718G11  C08B49094   4.666  10.174  14.178
   718G11  C08A49095   4.594  10.062  14.217
   718G11  C08949096   4.586   9.949  14.143
   718G11  C08849097   4.495   9.848  14.174
   718G11  C08749098   4.499   9.734  14.097
   718G11  C08649099   4.609   9.718  14.010
   718G11  C08X49100   4.392   9.859  14.271
   718G11  C08T49101   4.399   9.986  14.348
   718G11  C08D49102   4.682   9.937  14.040
   718G11  C08U49103   4.504  10.075  14.320
   718G11  C08V49104   4.486  10.199  14.386
   718G11  C0CY49105   4.556  10.311  14.343
   718G11  C0CX49106   4.522  10.428  14.403
   718G11  C0CW49107   4.585  10.546  14.351
   718G11  C0CV49108   4.678  10.531  14.252
   718G11  C0D449109   4.707  10.411  14.196
   718G11  C0CU49110   4.744  10.646  14.211
   718G11  C0CT49111   4.721  10.774  14.261
   718G11  C0CS49112   4.631  10.786  14.365
   718G11  C0D649113   4.828  10.627  14.104
   718G11  C0EC49114   4.861  10.511  14.043
   718G11  C07X49115   4.946  10.506  13.933
   718G11  C0DL49116   4.889  10.744  14.054
   718G11  C0DK49117   4.987  10.736  13.961
   718G11  C0DN49118   5.050  10.851  13.952
   718G11  C0D849119   4.885  10.872  14.111
   718G11  C08W49120   4.379  10.194  14.471
   718G11  C0CQ49121   4.343  10.318  14.534
   718G11  C09349122   4.646  10.298  14.239
   718G11  C09249123   4.798  10.398  14.092
   718G11  C08549124   4.757  10.045  14.001
   718G11  C07S49125   4.697   9.820  13.978
   718G11  C06F49126   4.730   9.578  13.858
   718G11  C07O49127   4.964   9.905  13.730
   718G11  C07N49128   5.043  10.012  13.690
   718G11  C05D49129   4.954   9.555  13.690
   718G11  C05C49130   4.875   9.446  13.732
   718G11  C05N49131   4.902   9.344  13.641
   718G11  C05M49132   5.137   9.369  13.334
   718G11  C05I49133   5.294   9.495  13.208
   718G11  C06149134   5.461   9.504  12.977
   718G11  C02Q49135   5.532   9.393  12.777
   718G11  C02O49136   5.471   9.171  12.597
   718G11  C03Q49137   5.328   9.174  12.938
   718G11  C03O49138   5.134   9.047  13.001
   718G11  C03L49139   4.947   8.812  12.814
   718G11  C02S49140   5.253   8.960  12.657
   718G11  C02T49141   5.179   8.798  12.450
   718G11  C03K49142   4.898   8.735  12.696
   718G11  C03I49143   5.158   8.701  12.353
   718G11  C03G49144   5.116   8.491  12.182
   718G11  H00D49145   5.094   8.410  12.113
   718G11  C03J49146   4.828   8.584  12.464
   718G11  C03W49147   4.559   8.523  12.405
   718G11  C04I49148   4.496   8.586  12.619
   718G11  C04K49149   4.319   8.638  12.836
   718G11  C04N49150   4.245   8.660  12.949
   718G11  C04X49151   4.221   8.749  13.176
   718G11  C05049152   4.183   8.866  13.404
   718G11  C05W49153   4.472   8.888  13.409
   718G11  C05S49154   4.276   9.145  13.751
   718G11  C05R49155   4.593   9.041  13.634
   718G11  C05O49156   4.811   9.236  13.642
   718G11  C05B49157   4.755   9.459  13.801
   718G11  C05A49158   4.452   9.269  13.849
   718G11  C07R49159   4.615   9.598  13.938
   718G11  C08N49160   4.400   9.634  14.113
   718G11  C08M49161   4.288   9.654  14.200
   718G11  C08L49162   4.177   9.566  14.195
   718G11  C09149163   4.313   9.268  13.835
   718G11  C09K49164   3.994   9.430  13.830
   718G11  H00M49165   4.010   9.457  13.727
   718G11  C08K49166   4.176   9.472  14.087
   718G11  C09J49167   3.879   9.449  13.916
   718G11  C09I49168   3.768   9.539  13.930
   718G11  C09L49169   3.692   9.598  13.824
   718G11  H00N49170   3.709   9.575  13.720
   718G11  C09Q49171   3.598   9.688  13.871
   718G11  H00O49172   3.539   9.737  13.795
   718G11  O00B49173   3.560   9.718  14.002
   718G11  C09G49174   3.647   9.677  14.101
   718G11  C09F49175   3.638   9.750  14.223
   718G11  O00A49176   3.518   9.822  14.227
   718G11  C09P49177   3.502   9.898  14.335
   718G11  H00P49178   3.406   9.903  14.385
   718G11  C09O49179   3.623   9.965  14.379
   718G11  C09D49180   3.728   9.879  14.411
   718G11  C09C49181   3.840   9.913  14.494
   718G11  C09N49182   3.881  10.025  14.572
   718G11  C09T49183   3.823  10.153  14.556
   718G11  C09S49184   3.716  10.187  14.461
   718G11  C0CP49185   3.727  10.325  14.443
   718G11  C0CN49186   3.823  10.384  14.523
   718G11  C0CO49187   3.843  10.521  14.519
   718G11  H01449188   3.907  10.573  14.588
   718G11  C0CZ49189   3.773  10.584  14.415
   718G11  H01549190   3.796  10.688  14.395
   718G11  C0D049191   3.677  10.525  14.332
   718G11  C0G549192   3.604  10.583  14.222
   718G11  H01F49193   3.624  10.688  14.203
   718G11  C0G449194   3.528  10.512  14.137
   718G11  H01G49195   3.479  10.573  14.063
   718G11  O00H49196   3.495  10.379  14.160
   718G11  C0D249197   3.561  10.320  14.265
   718G11  C09V49198   3.544  10.181  14.288
   718G11  H00Q49199   3.485  10.126  14.217
   718G11  C0D149200   3.653  10.394  14.347
   718G11  C09R49201   3.625  10.108  14.388
   718G11  C09H49202   3.746   9.584  14.065
   718G11  C09E49203   3.732   9.759  14.329
   718G11  C09B49204   3.944   9.827  14.508
   718G11  C08Z49205   4.060   9.606  14.273
   718G11  C08O49206   4.288   9.769  14.289
   718G11  C09A49207   4.056   9.874  14.580
   718G11  C08S49208   4.329  10.064  14.453
   718G11  C09949209   4.018  10.005  14.623
   718G11  C09U49210   3.885  10.276  14.596
   718G11  C0BO49211   4.098  10.597  14.835
   718G11  C0CL49212   4.230  10.336  14.618
   718G11  C0D349213   4.422  10.434  14.501
   718G11  C0D549214   4.558  10.671  14.405
   718G11  C0BR49215   4.283  10.690  14.719
   718G11  C0BQ49216   4.191  10.694  14.822
   718G11  C0BL49217   4.023  10.699  15.046
   718G11  C0AF49218   4.072  10.884  15.237
   718G11  C0BH49219   4.280  11.013  14.969
   718G11  C0BG49220   4.361  11.125  14.938
   718G11  C0BD49221   4.319  11.211  15.156
   718G11  C0AG49222   4.109  10.973  15.332
   718G11  C0AI49223   4.039  11.079  15.535
   718G11  C0AV49224   3.993  11.303  15.671
   718G11  C0BB49225   4.291  11.390  15.482
   718G11  O00C49226   4.043  11.543  15.675
   718G11  C0BC49227   4.327  11.517  15.449
   718G11  C0B949228   4.328  11.317  15.246
   718G11  O00E49229   4.459  11.582  15.026
   718G11  C0CA49230   4.542  11.594  14.922
   718G11  O00F49231   4.589  11.704  14.895
   718G11  C0BF49232   4.368  11.226  15.030
   718G11  C0C549233   4.561  11.477  14.844
   718G11  C0C449234   4.655  11.483  14.730
   718G11  H01149235   4.718  11.570  14.719
   718G11  C0C849236   4.432  11.130  14.818
   718G11  C0C249237   4.663  11.361  14.647
   718G11  C0C349238   4.756  11.343  14.544
   718G11  C0DY49239   4.852  11.442  14.500
   718G11  H01649240   4.871  11.542  14.538
   718G11  C0DX49241   4.925  11.377  14.396
   718G11  C0DW49242   5.064  11.410  14.373
   718G11  C0BY49243   4.525  11.017  14.625
   718G11  C0DB49244   4.766  11.230  14.467
   718G11  C0CC49245   4.621  10.901  14.433
   718G11  C0D749246   4.790  10.892  14.222
   718G11  C0DZ49247   4.863  11.245  14.365
   718G11  C0DM49248   4.990  10.941  14.043
   718G11  C0DQ49249   5.080  11.272  14.160
   718G11  C0DV49250   5.127  11.363  14.258
   718G11  C0E049251   5.154  11.517  14.420
   718G11  C0FO49252   5.321  11.738  14.209
   718G11  C0E349253   5.116  11.648  14.475
   718G11  H01749254   5.018  11.687  14.501
   718G11  C0GV49255   5.270  11.862  14.236
   718G11  C0ES49256   5.342  11.699  14.076
   718G11  C0GQ49257   5.270  12.022  13.907
   718G11  C0FJ49258   5.436  11.852  13.629
   718G11  C0ED49259   5.371  11.631  13.797
   718G11  C0ER49260   5.344  11.520  13.445
   718G11  C0EP49261   5.386  11.304  13.482
   718G11  C0E649262   5.306  11.383  13.865
   718G11  C0DE49263   5.213  11.094  13.855
   718G11  C0EA49264   5.398  11.046  13.513
   718G11  C0DF49265   5.249  10.960  13.853
   718G11  C08049266   5.324  10.725  13.590
   718G11  C0DO49267   5.157  10.854  13.865
   718G11  C0DJ49268   5.008  10.618  13.892
   718G11  C07K49269   5.243  10.468  13.633
   718G11  C07W49270   4.976  10.384  13.871
   718G11  C08349271   5.020  10.137  13.751
   718G11  C07J49272   5.263  10.343  13.568
   718G11  C06O49273   5.314  10.093  13.455
   718G11  C06M49274   5.143   9.996  13.592
   728G11  C07149275   7.214   1.647  14.223
   728G11  C07L49276   7.343   1.629  14.173
   728G11  C07M49277   7.370   1.531  14.079
   728G11  C07Y49278   7.503   1.512  14.037
   728G11  C08149279   7.613   1.589  14.085
   728G11  C08249280   7.740   1.562  14.032
   728G11  C0DI49281   7.873   1.617  14.073
   728G11  C0DH49282   7.918   1.720  14.162
   728G11  C0DG49283   8.057   1.726  14.183
   728G11  C0E949284   8.146   1.834  14.201
   728G11  C0E849285   8.256   1.800  14.105
   728G11  C0E749286   8.377   1.880  14.065
   728G11  C0EB49287   8.397   2.004  14.136
   728G11  C0EF49288   8.499   2.106  14.101
   728G11  C0EE49289   8.555   2.145  13.979
   728G11  C0FD49290   8.559   2.289  13.952
   728G11  C0FE49291   8.491   2.393  14.023
   728G11  H01B49292   8.434   2.355  14.106
   728G11  C0FF49293   8.511   2.530  14.004
   728G11  H01A49294   8.461   2.601  14.069
   728G11  C0FG49295   8.579   2.565  13.887
   728G11  H01849296   8.581   2.667  13.853
   728G11  C0FH49297   8.644   2.464  13.808
   728G11  C0FI49298   8.716   2.489  13.690
   728G11  H01949299   8.731   2.590  13.654
   728G11  O00K49300   8.756   2.398  13.598
   728G11  C0FL49301   8.742   2.264  13.634
   728G11  C0FK49302   8.684   2.224  13.755
   728G11  C0FM49303   8.683   2.087  13.788
   728G11  C0FN49304   8.759   1.997  13.711
   728G11  C0FP49305   8.815   2.041  13.588
   728G11  C0GO49306   8.867   1.954  13.502
   728G11  C0GN49307   8.880   1.975  13.363
   728G11  C0GR49308   8.837   2.102  13.323
   728G11  C0GS49309   8.815   2.126  13.185
   728G11  H01Q49310   8.784   2.221  13.144
   728G11  C0GT49311   8.835   2.026  13.092
   728G11  H01O49312   8.827   2.054  12.988
   728G11  C0GU49313   8.886   1.903  13.133
   728G11  H01P49314   8.921   1.828  13.064
   728G11  O00L49315   8.821   2.203  13.412
   728G11  C0GM49316   8.899   1.873  13.274
   728G11  C0GL49317   8.936   1.745  13.328
   728G11  H01R49318   8.958   1.670  13.255
   728G11  C0GK49319   8.936   1.723  13.466
   728G11  C0GP49320   8.929   1.607  13.545
   728G11  C0E249321   8.900   1.644  13.686
   728G11  C0E149322   8.803   1.552  13.747
   728G11  C0DU49323   8.671   1.585  13.787
   728G11  C0DT49324   8.630   1.697  13.848
   728G11  C0E449325   8.686   1.823  13.856
   728G11  C0E549326   8.596   1.904  13.922
   728G11  C0DS49327   8.502   1.707  13.908
   728G11  C0DR49328   8.408   1.609  13.876
   728G11  C0DD49329   8.279   1.595  13.924
   728G11  C0DC49330   8.233   1.470  13.848
   728G11  C0DP49331   8.333   1.408  13.766
   728G11  C0DA49332   8.326   1.291  13.673
   728G11  C0D949333   8.212   1.204  13.625
   728G11  C0CR49334   8.230   1.095  13.533
   728G11  C0C049335   8.353   1.060  13.483
   728G11  C0BZ49336   8.379   0.967  13.386
   728G11  C0C149337   8.507   0.947  13.336
   728G11  C0C749338   8.526   0.861  13.226
   728G11  C0C649339   8.650   0.855  13.159
   728G11  C0C949340   8.654   0.797  13.034
   728G11  C0B849341   8.781   0.793  12.968
   728G11  C0B749342   8.787   0.745  12.837
   728G11  C0B649343   8.894   0.737  12.737
   728G11  C0B549344   9.021   0.669  12.766
   728G11  H00Z49345   9.054   0.654  12.868
   728G11  C0B449346   9.065   0.606  12.642
   728G11  H01049347   9.141   0.532  12.624
   728G11  C0B349348   8.972   0.635  12.535
   728G11  C0AP49349   8.905   0.570  12.418
   728G11  C0AQ49350   8.774   0.612  12.439
   728G11  C0AR49351   8.668   0.535  12.393
   728G11  C0AS49352   8.558   0.544  12.469
   728G11  C0AT49353   8.549   0.606  12.595
   728G11  C0BA49354   8.654   0.676  12.647
   728G11  C0AU49355   8.444   0.579  12.672
   728G11  C0BE49356   8.443   0.628  12.802
   728G11  C0BI49357   8.323   0.607  12.871
   728G11  C0BJ49358   8.218   0.532  12.818
   728G11  C0BK49359   8.099   0.523  12.891
   728G11  C0BW49360   8.087   0.586  13.014
   728G11  C0BV49361   8.190   0.664  13.063
   728G11  C0BU49362   8.178   0.735  13.182
   728G11  C0BX49363   8.285   0.809  13.231
   728G11  C0BT49364   8.056   0.742  13.238
   728G11  C0CD49365   8.037   0.829  13.344
   728G11  C0CB49366   8.143   0.903  13.396
   728G11  C0CE49367   7.912   0.853  13.390
   728G11  C0CK49368   7.804   0.773  13.346
   728G11  C0BS49369   7.821   0.678  13.246
   728G11  C0CJ49370   7.708   0.604  13.198
   728G11  C0BP49371   7.730   0.510  13.093
   728G11  C0CI49372   7.630   0.428  13.053
   728G11  C0CH49373   7.651   0.358  12.934
   728G11  H01249374   7.575   0.287  12.905
   728G11  C0BN49375   7.761   0.388  12.846
   728G11  C0CG49376   7.770   0.335  12.715
   728G11  C0CF49377   7.659   0.270  12.656
   728G11  H01349378   7.559   0.265  12.698
   728G11  O00G49379   7.665   0.220  12.528
   728G11  C0AA49380   7.781   0.234  12.463
   728G11  C0A949381   7.779   0.172  12.337
   728G11  H00U49382   7.691   0.118  12.307
   728G11  C0A849383   7.891   0.181  12.256
   728G11  H00V49384   7.880   0.144  12.155
   728G11  C0A749385   8.014   0.243  12.301
   728G11  C0A649386   8.013   0.310  12.433
   728G11  C0A549387   8.119   0.377  12.491
   728G11  C0A449388   8.242   0.396  12.416
   728G11  C0A349389   8.305   0.360  12.300
   728G11  C0A249390   8.252   0.286  12.195
   728G11  C0A149391   8.328   0.240  12.086
   728G11  C0A049392   8.470   0.250  12.039
   728G11  C09Z49393   8.496   0.172  11.929
   728G11  C09Y49394   8.632   0.163  11.876
   728G11  H00Y49395   8.648   0.090  11.798
   728G11  C09X49396   8.730   0.237  11.933
   728G11  C09W49397   8.859   0.221  11.882
   728G11  H00R49398   8.873   0.163  11.792
   728G11  C0AX49399   8.976   0.257  11.946
   728G11  H00S49400   9.071   0.233  11.901
   728G11  C0AW49401   8.950   0.342  12.054
   728G11  H00T49402   9.039   0.372  12.108
   728G11  C0AN49403   8.827   0.366  12.113
   728G11  C0AO49404   8.811   0.438  12.233
   728G11  C0AM49405   8.708   0.309  12.051
   728G11  C0B249406   8.407   0.092  11.856
   728G11  O00D49407   8.444   0.015  11.768
   728G11  C0B149408   8.269   0.089  11.897
   728G11  H00W49409   8.189   0.027  11.857
   728G11  C0AL49410   8.576   0.315  12.102
   728G11  C0AK49411   8.569   0.388  12.224
   728G11  C0B049412   8.237   0.159  12.010
   728G11  C0AZ49413   8.110   0.153  12.081
   728G11  H00X49414   8.031   0.098  12.033
   728G11  C0AJ49415   8.444   0.407  12.300
   728G11  C0AH49416   8.334   0.471  12.485
   728G11  C0AE49417   8.112   0.428  12.625
   728G11  C0AD49418   7.997   0.413  12.699
   728G11  C0AY49419   8.117   0.231  12.204
   728G11  C0AB49420   7.897   0.298  12.513
   728G11  C0AC49421   7.891   0.347  12.646
   728G11  C0BM49422   7.872   0.452  12.900
   728G11  C0CM49423   7.512   0.425  13.127
   728G11  C09M49424   7.473   0.541  13.196
   728G11  C09849425   7.327   0.558  13.208
   728G11  C08R49426   7.249   0.649  13.286
   728G11  C08Q49427   7.110   0.632  13.265
   728G11  C08P49428   6.989   0.637  13.351
   728G11  C08Y49429   6.879   0.557  13.319
   728G11  C09749430   6.905   0.447  13.242
   728G11  C09649431   6.835   0.334  13.285
   728G11  C09049432   6.731   0.390  13.373
   728G11  C09549433   6.652   0.312  13.465
   728G11  C09449434   6.558   0.359  13.559
   728G11  C08J49435   6.543   0.487  13.613
   728G11  C08I49436   6.500   0.478  13.753
   728G11  C08H49437   6.532   0.601  13.819
   728G11  C08G49438   6.628   0.668  13.735
   728G11  C08F49439   6.707   0.794  13.730
   728G11  C08E49440   6.671   0.904  13.811
   728G11  C05949441   6.553   0.921  13.877
   728G11  C05849442   6.514   1.049  13.932
   728G11  C05749443   6.392   1.083  13.998
   728G11  C05649444   6.301   0.972  14.006
   728G11  C05549445   6.321   0.855  13.943
   728G11  C05449446   6.242   0.759  13.996
   728G11  C05349447   6.161   0.818  14.103
   728G11  C05249448   6.086   0.751  14.207
   728G11  C05149449   6.055   0.607  14.208
   728G11  C05U49450   6.127   0.506  14.126
   728G11  C05T49451   6.242   0.508  14.034
   728G11  C06K49452   6.241   0.376  13.980
   728G11  H00J49453   6.297   0.354  13.890
   728G11  C06L49454   6.150   0.286  14.037
   728G11  H00I49455   6.140   0.180  14.019
   728G11  C05V49456   6.072   0.371  14.122
   728G11  C06J49457   5.963   0.336  14.188
   728G11  H00K49458   5.916   0.244  14.158
   728G11  C05X49459   5.916   0.411  14.291
   728G11  C06I49460   5.820   0.372  14.394
   728G11  H00L49461   5.786   0.269  14.393
   728G11  C04Z49462   5.777   0.449  14.503
   728G11  C06H49463   5.687   0.399  14.601
   728G11  H00H49464   5.657   0.296  14.602
   728G11  C04Y49465   5.647   0.480  14.710
   728G11  C06G49466   5.553   0.429  14.801
   728G11  O00949467   5.497   0.321  14.788
   728G11  O00849468   5.516   0.504  14.914
   728G11  C04P49469   5.577   0.622  14.936
   728G11  C04J49470   5.554   0.718  15.044
   728G11  C04Q49471   5.486   0.696  15.163
   728G11  H00E49472   5.438   0.600  15.174
   728G11  C04M49473   5.458   0.785  15.262
   728G11  C04R49474   5.385   0.755  15.377
   728G11  H00F49475   5.328   0.664  15.386
   728G11  C04S49476   5.353   0.854  15.460
   728G11  H00G49477   5.280   0.836  15.538
   728G11  O00749478   5.396   0.985  15.449
   728G11  C03V49479   5.482   1.007  15.343
   728G11  C03U49480   5.544   1.139  15.337
   728G11  O00649481   5.523   1.220  15.438
   728G11  C03F49482   5.601   1.329  15.448
   728G11  C03E49483   5.683   1.375  15.343
   728G11  C03D49484   5.699   1.289  15.230
   728G11  C03C49485   5.781   1.332  15.127
   728G11  C03B49486   5.843   1.451  15.143
   728G11  C03A49487   5.938   1.494  15.046
   728G11  C03949488   5.968   1.413  14.931
   728G11  C03849489   6.069   1.495  14.856
   728G11  C03749490   6.090   1.607  14.937
   728G11  C03649491   6.164   1.709  14.899
   728G11  C02R49492   6.210   1.813  14.971
   728G11  C03549493   6.319   1.861  14.893
   728G11  C03R49494   6.334   1.798  14.776
   728G11  C03S49495   6.454   1.781  14.712
   728G11  C04949496   6.459   1.684  14.616
   728G11  C04849497   6.348   1.594  14.611
   728G11  C03P49498   6.246   1.581  14.710
   728G11  C04749499   6.365   1.500  14.503
   728G11  C04649500   6.283   1.393  14.468
   728G11  C04549501   6.172   1.344  14.537
   728G11  C03T49502   6.108   1.375  14.654
   728G11  C04449503   6.009   1.277  14.679
   728G11  C04349504   5.994   1.208  14.562
   728G11  C04249505   5.940   1.080  14.586
   728G11  C04149506   5.888   1.098  14.720
   728G11  C04049507   5.835   0.992  14.803
   728G11  C03Z49508   5.766   1.009  14.925
   728G11  C04H49509   5.706   0.886  14.947
   728G11  C04G49510   5.733   0.793  14.843
   728G11  C03N49511   5.740   1.119  15.021
   728G11  C03Y49512   5.655   1.080  15.126
   728G11  C03X49513   5.591   0.951  15.138
   728G11  C04F49514   5.814   0.860  14.752
   728G11  C04E49515   5.842   0.786  14.631
   728G11  C04O49516   5.788   0.659  14.615
   728G11  C04D49517   5.907   0.839  14.515
   728G11  C04V49518   5.941   0.757  14.406
   728G11  C04W49519   5.912   0.619  14.404
   728G11  C04C49520   5.953   0.968  14.490
   728G11  C04L49521   6.018   0.959  14.359
   728G11  C04U49522   6.097   1.061  14.292
   728G11  C05Q49523   6.180   1.060  14.178
   728G11  C05P49524   6.266   1.171  14.174
   728G11  C04T49525   6.247   1.239  14.295
   728G11  C04B49526   6.140   1.180  14.359
   728G11  C03M49527   5.928   1.221  14.781
   728G11  C04A49528   6.107   1.236  14.481
   728G11  C05H49529   6.321   1.345  14.346
   728G11  C05G49530   6.438   1.416  14.303
   728G11  C05F49531   6.502   1.399  14.179
   728G11  C05E49532   6.642   1.432  14.167
   728G11  C05L49533   6.739   1.518  14.234
   728G11  C05K49534   6.706   1.604  14.347
   728G11  C05J49535   6.587   1.603  14.428
   728G11  C06649536   6.818   1.682  14.391
   728G11  C06549537   6.946   1.671  14.332
   728G11  C06449538   6.976   1.580  14.227
   728G11  C06N49539   7.054   1.748  14.384
   728G11  C06949540   7.042   1.824  14.496
   728G11  C06P49541   7.153   1.893  14.552
   728G11  C06R49542   7.140   1.967  14.666
   728G11  C06B49543   7.018   1.981  14.723
   728G11  C06S49544   7.010   2.049  14.844
   728G11  C02G49545   6.886   2.060  14.907
   728G11  C02F49546   6.875   2.121  15.032
   728G11  C02749547   6.985   2.178  15.093
   728G11  C02649548   6.976   2.225  15.219
   728G11  C00E49549   7.091   2.268  15.282
   728G11  C00D49550   7.084   2.315  15.411
   728G11  C00C49551   7.198   2.366  15.468
   728G11  C00B49552   7.316   2.375  15.409
   728G11  C01549553   7.321   2.340  15.273
   728G11  C07F49554   7.442   2.348  15.210
   728G11  C07E49555   7.449   2.298  15.080
   728G11  C06W49556   7.338   2.234  15.017
   728G11  C06V49557   7.218   2.227  15.084
   728G11  C06X49558   7.346   2.170  14.897
   728G11  C07B49559   7.468   2.171  14.832
   728G11  C07C49560   7.579   2.236  14.890
   728G11  C0FU49561   7.701   2.228  14.825
   728G11  C0F749562   7.815   2.290  14.878
   728G11  C0F649563   7.935   2.281  14.816
   728G11  C0F849564   8.045   2.341  14.870
   728G11  C0F949565   8.166   2.331  14.810
   728G11  C0FA49566   8.277   2.397  14.859
   728G11  C0FZ49567   8.264   2.463  14.980
   728G11  C0G049568   8.372   2.531  15.032
   728G11  C0GD49569   8.489   2.551  14.960
   728G11  C0FC49570   8.504   2.483  14.835
   728G11  C0GH49571   8.617   2.505  14.753
   728G11  C0EY49572   8.626   2.438  14.629
   728G11  C0EX49573   8.738   2.469  14.541
   728G11  C0EW49574   8.740   2.409  14.415
   728G11  C0FR49575   8.846   2.442  14.322
   728G11  H01D49576   8.853   2.399  14.223
   728G11  C0FS49577   8.950   2.529  14.359
   728G11  H01C49578   9.033   2.551  14.293
   728G11  C0GJ49579   8.940   2.594  14.485
   728G11  H01N49580   9.014   2.669  14.506
   728G11  C0EV49581   8.644   2.313  14.375
   728G11  C0FT49582   8.646   2.243  14.252
   728G11  H01E49583   8.728   2.239  14.182
   728G11  C0EU49584   8.531   2.295  14.460
   728G11  C0ET49585   8.426   2.216  14.427
   728G11  C0EI49586   8.308   2.197  14.496
   728G11  C0F149587   8.296   2.265  14.615
   728G11  C0F049588   8.406   2.340  14.664
   728G11  C0EH49589   8.202   2.116  14.443
   728G11  C0EG49590   8.223   2.028  14.325
   728G11  C0EJ49591   8.085   2.119  14.519
   728G11  C0F349592   8.071   2.198  14.632
   728G11  C0EK49593   7.973   2.058  14.465
   728G11  C0EL49594   7.990   1.963  14.356
   728G11  C0EM49595   7.862   1.901  14.317
   728G11  C0EN49596   7.745   1.947  14.366
   728G11  C07I49597   7.641   1.878  14.314
   728G11  C07449598   7.518   1.877  14.377
   728G11  C07349599   7.419   1.796  14.324
   728G11  C07249600   7.292   1.803  14.383
   728G11  C07549601   7.507   1.954  14.485
   728G11  C07649602   7.611   2.025  14.537
   728G11  C07849603   7.604   2.098  14.654
   728G11  C07G49604   7.383   1.959  14.541
   728G11  C07049605   7.373   2.031  14.655
   728G11  C07Z49606   7.679   1.776  14.224
   728G11  C07749607   7.736   2.024  14.477
   728G11  C0EO49608   7.849   2.081  14.525
   728G11  C0F449609   7.837   2.162  14.637
   728G11  C0EQ49610   8.435   2.148  14.305
   728G11  C0FQ49611   8.835   2.572  14.575
   728G11  C0GI49612   8.817   2.628  14.702
   728G11  H01L49613   8.892   2.700  14.731
   728G11  C0EZ49614   8.522   2.356  14.585
   728G11  C0GG49615   8.717   2.595  14.799
   728G11  C0GF49616   8.707   2.648  14.927
   728G11  H01M49617   8.785   2.711  14.967
   728G11  C0GE49618   8.595   2.631  15.006
   728G11  H01K49619   8.594   2.686  15.099
   728G11  O00J49620   8.358   2.606  15.142
   728G11  C0GA49621   8.248   2.594  15.218
   728G11  C0G949622   8.246   2.638  15.351
   728G11  H01H49623   8.335   2.682  15.393
   728G11  C0G849624   8.136   2.630  15.431
   728G11  C0G749625   8.128   2.679  15.564
   728G11  H01I49626   8.220   2.708  15.613
   728G11  O00I49627   8.019   2.666  15.649
   728G11  C0G649628   7.916   2.593  15.595
   728G11  H01J49629   7.854   2.547  15.670
   728G11  C02D49630   7.901   2.556  15.451
   728G11  C02C49631   7.782   2.500  15.404
   728G11  C01749632   7.660   2.484  15.477
   728G11  C01649633   7.546   2.436  15.408
   728G11  O00149634   7.644   2.536  15.606
   728G11  C01849635   7.534   2.509  15.685
   728G11  C00949636   7.419   2.472  15.618
   728G11  C00849637   7.291   2.446  15.683
   728G11  C00749638   7.231   2.451  15.810
   728G11  C00649639   7.296   2.498  15.928
   728G11  C00549640   7.244   2.497  16.059
   728G11  C00449641   7.114   2.449  16.109
   728G11  C00349642   6.994   2.392  16.038
   728G11  C00249643   6.874   2.355  16.116
   728G11  C00P49644   6.762   2.308  16.047
   728G11  C00O49645   6.648   2.267  16.122
   728G11  C00N49646   6.536   2.203  16.061
   728G11  C01049647   6.427   2.156  16.138
   728G11  C01149648   6.318   2.091  16.076
   728G11  C01Q49649   6.218   2.036  16.149
   728G11  C01U49650   6.218   2.048  16.292
   728G11  C01249651   6.325   2.119  16.350
   728G11  H00049652   6.322   2.130  16.457
   728G11  C01V49653   6.111   1.989  16.362
   728G11  H00749654   6.105   2.012  16.467
   728G11  O00549655   6.016   1.913  16.297
   728G11  C01W49656   6.025   1.889  16.162
   728G11  C03149657   5.946   1.787  16.110
   728G11  C03249658   5.963   1.751  15.977
   728G11  H00A49659   5.908   1.666  15.940
   728G11  C03349660   6.054   1.820  15.895
   728G11  H00B49661   6.076   1.779  15.798
   728G11  C01O49662   6.124   1.932  15.950
   728G11  C01N49663   6.209   2.007  15.872
   728G11  C01M49664   6.198   2.012  15.724
   728G11  C01L49665   6.124   1.958  15.603
   728G11  C01K49666   6.196   2.001  15.490
   728G11  C01Y49667   6.195   1.955  15.362
   728G11  C02I49668   6.100   1.859  15.328
   728G11  C02N49669   6.102   1.802  15.199
   728G11  C02M49670   6.018   1.685  15.182
   728G11  C02L49671   5.927   1.648  15.279
   728G11  C02K49672   5.922   1.717  15.403
   728G11  C02U49673   5.815   1.686  15.493
   728G11  C02V49674   5.742   1.568  15.469
   728G11  C03H49675   5.658   1.516  15.574
   728G11  H00C49676   5.646   1.559  15.673
   728G11  C02W49677   5.796   1.766  15.607
   728G11  C02X49678   5.888   1.860  15.629
   728G11  C02Y49679   5.843   1.933  15.741
   728G11  H00849680   5.881   2.031  15.768
   728G11  C02Z49681   5.709   1.882  15.782
   728G11  O00449682   5.631   1.926  15.866
   728G11  O00349683   5.687   1.777  15.695
   728G11  C02J49684   6.008   1.823  15.434
   728G11  C01Z49685   6.298   1.998  15.272
   728G11  C02049686   6.401   2.080  15.318
   728G11  C01I49687   6.404   2.126  15.446
   728G11  C01H49688   6.513   2.175  15.511
   728G11  C00K49689   6.517   2.189  15.650
   728G11  C01S49690   6.415   2.148  15.729
   728G11  C01449691   6.419   2.144  15.866
   728G11  C00J49692   6.635   2.235  15.711
   728G11  C00I49693   6.742   2.256  15.637
   728G11  C00H49694   6.740   2.236  15.497
   728G11  C00G49695   6.859   2.252  15.424
   728G11  C00S49696   6.858   2.306  15.694
   728G11  C00T49697   6.956   2.334  15.613
   728G11  C00U49698   7.067   2.387  15.673
   728G11  C00R49699   6.869   2.331  15.834
   728G11  C00L49700   6.640   2.247  15.850
   728G11  C02849701   6.624   2.201  15.434
   728G11  C02349702   6.626   2.158  15.299
   728G11  C02449703   6.746   2.162  15.231
   728G11  C02149704   6.517   2.097  15.245
   728G11  C02249705   6.519   2.049  15.118
   728G11  C02H49706   6.638   2.062  15.044
   728G11  C03049707   6.651   2.000  14.925
   728G11  C03449708   6.539   1.940  14.868
   728G11  C02P49709   6.414   1.981  15.069
   728G11  C02B49710   6.299   1.952  15.143
   728G11  C01J49711   6.295   2.091  15.531
   728G11  C01X49712   6.002   1.888  15.562
   728G11  C01T49713   6.302   2.092  15.667
   728G11  H00949714   5.893   1.731  16.185
   728G11  C01P49715   6.122   1.953  16.085
   728G11  C01R49716   6.315   2.080  15.937
   728G11  C00Z49717   6.426   2.169  16.272
   728G11  O00049718   6.535   2.238  16.335
   728G11  C00M49719   6.529   2.198  15.926
   728G11  C00Y49720   6.647   2.281  16.263
   728G11  C01349721   6.761   2.319  16.330
   728G11  H00149722   6.750   2.325  16.437
   728G11  C00Q49723   6.760   2.297  15.908
   728G11  C00149724   6.875   2.363  16.258
   728G11  C00049725   6.993   2.417  16.311
   728G11  H00649726   7.000   2.416  16.419
   728G11  C00W49727   6.986   2.379  15.900
   728G11  C01G49728   7.107   2.462  16.247
   728G11  H00549729   7.178   2.496  16.321
   728G11  C01C49730   7.355   2.548  16.140
   728G11  H00249731   7.361   2.567  16.247
   728G11  C01B49732   7.472   2.561  16.062
   728G11  C01D49733   7.603   2.588  16.103
   728G11  H00349734   7.636   2.615  16.202
   728G11  C01E49735   7.693   2.588  16.006
   728G11  H00449736   7.796   2.609  16.029
   728G11  O00249737   7.664   2.577  15.866
   728G11  C01A49738   7.437   2.528  15.928
   728G11  C00V49739   7.095   2.410  15.808
   728G11  C01949740   7.542   2.528  15.829
   728G11  C02E49741   7.791   2.445  15.272
   728G11  C0FX49742   7.906   2.452  15.196
   728G11  C0FW49743   7.913   2.401  15.067
   728G11  C0GB49744   8.016   2.516  15.252
   728G11  C0G349745   7.676   2.390  15.207
   728G11  C07H49746   7.680   2.350  15.076
   728G11  C0GC49747   8.017   2.572  15.380
   728G11  C0G249748   8.133   2.527  15.174
   728G11  C0G149749   8.143   2.467  15.047
   728G11  C0FB49750   8.396   2.406  14.788
   728G11  C0F249751   8.179   2.260  14.688
   728G11  C0FY49752   8.032   2.402  14.995
   728G11  C0F549753   7.949   2.215  14.696
   728G11  C0FV49754   7.802   2.350  15.004
   728G11  C07949755   7.714   2.170  14.703
   728G11  C07A49756   7.481   2.105  14.712
   728G11  C06Y49757   7.238   2.110  14.836
   728G11  C07D49758   7.570   2.296  15.013
   728G11  C01F49759   7.558   2.395  15.274
   728G11  C00A49760   7.425   2.427  15.483
   728G11  C00X49761   7.185   2.412  15.600
   728G11  C00F49762   6.967   2.300  15.482
   728G11  C02949763   7.210   2.279  15.210
   728G11  C02549764   6.860   2.217  15.290
   728G11  C06U49765   7.106   2.171  15.028
   728G11  C02A49766   6.751   2.114  15.102
   728G11  C05Y49767   6.770   2.000  14.856
   728G11  C05Z49768   6.779   1.930  14.730
   728G11  C06049769   6.674   1.857  14.681
   728G11  C06249770   6.684   1.770  14.572
   728G11  C06T49771   7.119   2.111  14.900
   728G11  C06A49772   6.904   1.916  14.669
   728G11  C06Z49773   7.255   2.034  14.719
   728G11  C06Q49774   7.273   1.883  14.494
   728G11  C06849775   6.923   1.831  14.560
   728G11  C06749776   6.809   1.761  14.508
   728G11  C06349777   6.869   1.508  14.178
   728G11  C06C49778   6.904   1.411  14.075
   728G11  C06D49779   6.812   1.329  14.018
   728G11  C06E49780   6.836   1.216  13.936
   728G11  C07Q49781   6.963   1.201  13.888
   728G11  C07P49782   7.060   1.287  13.934
   728G11  C07T49783   7.189   1.279  13.884
   728G11  C07U49784   7.292   1.360  13.934
   728G11  C07V49785   7.422   1.338  13.885
   728G11  C08449786   7.447   1.237  13.792
   728G11  C08C49787   7.347   1.157  13.748
   728G11  C08B49788   7.375   1.049  13.671
   728G11  C08A49789   7.275   0.966  13.637
   728G11  C08949790   7.146   0.986  13.666
   728G11  C08849791   7.047   0.899  13.618
   728G11  C08749792   6.920   0.898  13.677
   728G11  C08649793   6.890   0.996  13.768
   728G11  C08X49794   7.076   0.796  13.524
   728G11  C08T49795   7.214   0.779  13.488
   728G11  C08D49796   7.117   1.093  13.747
   728G11  C08U49797   7.304   0.865  13.548
   728G11  C08V49798   7.433   0.843  13.499
   728G11  C0CY49799   7.536   0.927  13.540
   728G11  C0CX49800   7.660   0.903  13.485
   728G11  C0CW49801   7.764   0.985  13.528
   728G11  C0CV49802   7.731   1.091  13.608
   728G11  C0D449803   7.605   1.110  13.662
   728G11  C0CU49804   7.834   1.171  13.650
   728G11  C0CT49805   7.969   1.147  13.610
   728G11  C0CS49806   7.994   1.035  13.527
   728G11  C0D649807   7.802   1.261  13.745
   728G11  C0EC49808   7.676   1.283  13.802
   728G11  C07X49809   7.653   1.384  13.892
   728G11  C0DL49810   7.904   1.338  13.788
   728G11  C0DK49811   7.884   1.428  13.890
   728G11  C0DN49812   8.001   1.479  13.924
   728G11  C0D849813   8.038   1.328  13.758
   728G11  C08W49814   7.437   0.743  13.405
   728G11  C0CQ49815   7.564   0.723  13.345
   728G11  C09349816   7.503   1.028  13.627
   728G11  C09249817   7.571   1.209  13.754
   728G11  C08549818   7.217   1.180  13.789
   728G11  C07S49819   6.988   1.100  13.797
   728G11  C06F49820   6.736   1.123  13.898
   728G11  C07O49821   7.034   1.386  14.030
   728G11  C07N49822   7.135   1.471  14.075
   728G11  C05D49823   6.683   1.350  14.053
   728G11  C05C49824   6.583   1.264  14.013
   728G11  C05N49825   6.474   1.289  14.085
   728G11  C05M49826   6.477   1.511  14.408
   728G11  C05I49827   6.573   1.685  14.541
   728G11  C06149828   6.557   1.863  14.753
   728G11  C02Q49829   6.422   1.935  14.942
   728G11  C02O49830   6.201   1.852  15.110
   728G11  C03Q49831   6.242   1.696  14.785
   728G11  C03O49832   6.145   1.480  14.738
   728G11  C03L49833   5.897   1.282  14.906
   728G11  C02S49834   6.019   1.606  15.062
   728G11  C02T49835   5.845   1.534  15.258
   728G11  C03K49836   5.806   1.247  15.017
   728G11  C03I49837   5.754   1.492  15.356
   728G11  C03G49838   5.588   1.397  15.566
   728G11  H00D49839   5.523   1.368  15.646
   728G11  C03J49840   5.630   1.170  15.228
   728G11  C03W49841   5.506   0.918  15.243
   728G11  C04I49842   5.612   0.847  15.047
   728G11  C04K49843   5.667   0.673  14.833
   728G11  C04N49844   5.706   0.602  14.719
   728G11  C04X49845   5.822   0.578  14.505
   728G11  C05049846   5.956   0.546  14.295
   728G11  C05W49847   6.021   0.821  14.312
   728G11  C05S49848   6.298   0.633  13.970
   728G11  C05R49849   6.202   0.952  14.097
   728G11  C05O49850   6.374   1.192  14.085
   728G11  C05B49851   6.610   1.146  13.940
   728G11  C05A49852   6.445   0.814  13.904
   728G11  C07R49853   6.763   1.010  13.821
   728G11  C08N49854   6.824   0.797  13.656
   728G11  C08M49855   6.850   0.708  13.552
   728G11  C08L49856   6.749   0.610  13.522
   728G11  C09149857   6.429   0.669  13.896
   728G11  C09K49858   6.526   0.336  13.791
   728G11  H00M49859   6.547   0.297  13.889
   728G11  C08K49860   6.646   0.585  13.619
   728G11  C09J49861   6.546   0.267  13.662
   728G11  C09I49862   6.594   0.145  13.610
   728G11  C09L49863   6.591   0.013  13.669
   728G11  H00N49864   6.540   0.003  13.764
   728G11  C09Q49865   6.642  -0.090  13.592
   728G11  H00O49866   6.629  -0.190  13.631
   728G11  O00B49867   6.710  -0.072  13.471
   728G11  C09G49868   6.734   0.061  13.425
   728G11  C09F49869   6.828   0.073  13.324
   728G11  O00A49870   6.878  -0.049  13.290
   728G11  C09P49871   6.950  -0.045  13.177
   728G11  H00P49872   6.900  -0.059  13.083
   728G11  C09O49873   7.061   0.054  13.188
   728G11  C09D49874   7.010   0.190  13.202
   728G11  C09C49875   7.080   0.307  13.167
   728G11  C09N49876   7.216   0.345  13.137
   728G11  C09T49877   7.318   0.251  13.138
   728G11  C09S49878   7.309   0.109  13.173
   728G11  C0CP49879   7.444   0.075  13.201
   728G11  C0CN49880   7.534   0.178  13.186
   728G11  C0CO49881   7.667   0.159  13.223
   728G11  H01449882   7.744   0.232  13.202
   728G11  C0CZ49883   7.686   0.040  13.298
   728G11  H01549884   7.778   0.021  13.351
   728G11  C0D049885   7.590  -0.069  13.321
   728G11  C0G549886   7.601  -0.181  13.412
   728G11  H01F49887   7.699  -0.187  13.457
   728G11  C0G449888   7.499  -0.274  13.421
   728G11  H01G49889   7.517  -0.363  13.478
   728G11  O00H49890   7.380  -0.261  13.353
   728G11  C0D249891   7.360  -0.145  13.285
   728G11  C09V49892   7.227  -0.104  13.249
   728G11  H00Q49893   7.148  -0.173  13.276
   728G11  C0D149894   7.460  -0.049  13.269
   728G11  C09R49895   7.199   0.022  13.198
   728G11  C09H49896   6.665   0.165  13.490
   728G11  C09E49897   6.885   0.200  13.269
   728G11  C09B49898   7.017   0.437  13.176
   728G11  C08Z49899   6.777   0.523  13.406
   728G11  C08O49900   6.971   0.716  13.476
   728G11  C09A49901   7.102   0.549  13.150
   728G11  C08S49902   7.303   0.707  13.398
   728G11  C09949903   7.226   0.488  13.135
   728G11  C09U49904   7.458   0.291  13.143
   728G11  C0BO49905   7.859   0.511  13.028
   728G11  C0CL49906   7.579   0.627  13.246
   728G11  C0D349907   7.676   0.799  13.392
   728G11  C0D549908   7.888   0.959  13.481
   728G11  C0BR49909   7.950   0.663  13.188
   728G11  C0BQ49910   7.967   0.583  13.077
   728G11  C0BL49911   7.990   0.467  12.830
   728G11  C0AF49912   8.223   0.493  12.687
   728G11  C0BH49913   8.312   0.666  12.995
   728G11  C0BG49914   8.417   0.732  13.050
   728G11  C0BD49915   8.554   0.686  12.857
   728G11  C0AG49916   8.335   0.513  12.621
   728G11  C0AI49917   8.451   0.481  12.416
   728G11  C0AV49918   8.680   0.456  12.283
   728G11  C0BB49919   8.759   0.690  12.557
   728G11  O00C49920   8.925   0.479  12.306
   728G11  C0BC49921   8.881   0.730  12.600
   728G11  C0B949922   8.666   0.707  12.779
   728G11  O00E49923   8.897   0.834  13.029
   728G11  C0CA49924   8.888   0.910  13.144
   728G11  O00F49925   8.984   0.964  13.193
   728G11  C0BF49926   8.542   0.736  12.984
   728G11  C0C549927   8.760   0.920  13.211
   728G11  C0C449928   8.743   1.005  13.330
   728G11  H01149929   8.830   1.060  13.363
   728G11  C0C849930   8.410   0.798  13.171
   728G11  C0C249931   8.620   1.013  13.388
   728G11  C0C349932   8.593   1.097  13.504
   728G11  C0DY49933   8.677   1.190  13.565
   728G11  H01649934   8.782   1.213  13.551
   728G11  C0DX49935   8.585   1.286  13.623
   728G11  C0DW49936   8.636   1.412  13.653
   728G11  C0BY49937   8.273   0.892  13.340
   728G11  C0DB49938   8.463   1.136  13.535
   728G11  C0CC49939   8.125   1.010  13.488
   728G11  C0D749940   8.079   1.226  13.662
   728G11  C0DZ49941   8.448   1.246  13.625
   728G11  C0DM49942   8.104   1.416  13.848
   728G11  C0DQ49943   8.443   1.498  13.793
   728G11  C0DV49944   8.574   1.497  13.748
   728G11  C0E049945   8.778   1.452  13.646
   728G11  C0FO49946   8.871   1.784  13.681
   728G11  C0E349947   8.847   1.487  13.520
   728G11  H01749948   8.818   1.450  13.422
   728G11  C0GV49949   8.902   1.827  13.552
   728G11  C0ES49950   8.781   1.866  13.759
   728G11  C0GQ49951   8.796   2.172  13.542
   728G11  C0FJ49952   8.629   2.324  13.838
   728G11  C0ED49953   8.613   2.046  13.904
   728G11  C0ER49954   8.535   2.176  14.217
   728G11  C0EP49955   8.343   2.059  14.254
   728G11  C0E649956   8.486   1.834  13.976
   728G11  C0DE49957   8.226   1.665  14.042
   728G11  C0EA49958   8.121   1.937  14.299
   728G11  C0DF49959   8.106   1.630  14.095
   728G11  C08049960   7.824   1.798  14.227
   728G11  C0DO49961   7.996   1.566  14.029
   728G11  C0DJ49962   7.756   1.463  13.937
   728G11  C07K49963   7.577   1.693  14.172
   728G11  C07W49964   7.526   1.412  13.937
   728G11  C08349965   7.267   1.455  14.033
   728G11  C07J49966   7.447   1.707  14.222
   728G11  C06O49967   7.185   1.735  14.329
   728G11  C06M49968   7.107   1.573  14.169
   738G11  C07149969   2.319   5.103  14.338
   738G11  C07L49970   2.211   5.006  14.347
   738G11  C07M49971   2.240   4.870  14.344
   738G11  C07Y49972   2.136   4.772  14.334
   738G11  C08149973   2.007   4.812  14.335
   738G11  C08249974   1.908   4.704  14.325
   738G11  C0DI49975   1.758   4.715  14.297
   738G11  C0DH49976   1.668   4.826  14.296
   738G11  C0DG49977   1.539   4.777  14.258
   738G11  C0E949978   1.404   4.819  14.296
   738G11  C0E849979   1.328   4.691  14.308
   738G11  C0E749980   1.188   4.666  14.338
   738G11  C0EB49981   1.098   4.781  14.380
   738G11  C0EF49982   0.971   4.775  14.453
   738G11  C0EE49983   0.909   4.665  14.521
   738G11  C0FD49984   0.840   4.693  14.644
   738G11  C0FE49985   0.853   4.808  14.721
   738G11  H01B49986   0.924   4.883  14.689
   738G11  C0FF49987   0.778   4.839  14.838
   738G11  H01A49988   0.793   4.923  14.904
   738G11  C0FG49989   0.680   4.751  14.869
   738G11  H01849990   0.627   4.775  14.961
   738G11  C0FH49991   0.666   4.633  14.799
   738G11  C0FI49992   0.574   4.530  14.838
   738G11  H01949993   0.516   4.551  14.927
   738G11  O00K49994   0.556   4.413  14.781
   738G11  C0FL49995   0.639   4.387  14.674
   738G11  C0FK49996   0.732   4.481  14.617
   738G11  C0FM49997   0.811   4.445  14.503
   738G11  C0FN49998   0.777   4.330  14.436
   738G11  C0FP49999   0.691   4.234  14.495
   738G11  C0GO50000   0.670   4.110  14.443
   738G11  C0GN50001   0.609   4.004  14.506
   738G11  C0GR50002   0.547   4.033  14.626
   738G11  C0GS50003   0.490   3.929  14.702
   738G11  H01Q50004   0.439   3.964  14.790
   738G11  C0GT50005   0.505   3.798  14.658
   738G11  H01O50006   0.478   3.712  14.718
   738G11  C0GU50007   0.570   3.766  14.540
   738G11  H01P50008   0.573   3.662  14.511
   738G11  O00L50009   0.542   4.165  14.678
   738G11  C0GM50010   0.634   3.868  14.465
   738G11  C0GL50011   0.726   3.843  14.353
   738G11  H01R50012   0.743   3.745  14.311
   738G11  C0GK50013   0.768   3.955  14.282
   738G11  C0GP50014   0.856   3.965  14.169
   738G11  C0E250015   0.869   4.107  14.145
   738G11  C0E150016   1.007   4.121  14.109
   738G11  C0DU50017   1.096   4.209  14.170
   738G11  C0DT50018   1.074   4.330  14.235
   738G11  C0E450019   0.962   4.368  14.295
   738G11  C0E550020   0.994   4.486  14.361
   738G11  C0DS50021   1.177   4.413  14.273
   738G11  C0DR50022   1.306   4.358  14.256
   738G11  C0DD50023   1.425   4.427  14.280
   738G11  C0DC50024   1.528   4.323  14.253
   738G11  C0DP50025   1.479   4.195  14.206
   738G11  C0DA50026   1.547   4.064  14.181
   738G11  C0D950027   1.694   4.028  14.194
   738G11  C0CR50028   1.744   3.893  14.161
   738G11  C0C050029   1.660   3.790  14.121
   738G11  C0BZ50030   1.690   3.668  14.076
   738G11  C0C150031   1.598   3.570  14.036
   738G11  C0C750032   1.637   3.443  13.985
   738G11  C0C650033   1.542   3.346  13.951
   738G11  C0C950034   1.584   3.228  13.887
   738G11  C0B850035   1.489   3.131  13.850
   738G11  C0B750036   1.527   3.018  13.773
   738G11  C0B650037   1.447   2.903  13.723
   738G11  C0B550038   1.370   2.833  13.822
   738G11  H00Z50039   1.345   2.876  13.917
   738G11  C0B450040   1.366   2.689  13.784
   738G11  H01050041   1.313   2.608  13.833
   738G11  C0B350042   1.444   2.675  13.660
   738G11  C0AP50043   1.554   2.588  13.616
   738G11  C0AQ50044   1.662   2.673  13.594
   738G11  C0AR50045   1.794   2.633  13.609
   738G11  C0AS50046   1.875   2.734  13.632
   738G11  C0AT50047   1.840   2.864  13.661
   738G11  C0BA50048   1.711   2.904  13.666
   738G11  C0AU50049   1.931   2.953  13.718
   738G11  C0BE50050   1.891   3.072  13.772
   738G11  C0BI50051   1.989   3.154  13.830
   738G11  C0BJ50052   2.120   3.116  13.834
   738G11  C0BK50053   2.215   3.197  13.895
   738G11  C0BW50054   2.180   3.326  13.933
   738G11  C0BV50055   2.044   3.368  13.929
   738G11  C0BU50056   2.001   3.486  13.991
   738G11  C0BX50057   1.868   3.516  14.003
   738G11  C0BT50058   2.100   3.577  14.028
   738G11  C0CD50059   2.057   3.701  14.081
   738G11  C0CB50060   1.923   3.734  14.094
   738G11  C0CE50061   2.157   3.789  14.119
   738G11  C0CK50062   2.294   3.756  14.111
   738G11  C0BS50063   2.335   3.631  14.062
   738G11  C0CJ50064   2.471   3.585  14.084
   738G11  C0BP50065   2.498   3.448  14.068
   738G11  C0CI50066   2.631   3.395  14.084
   738G11  C0CH50067   2.641   3.255  14.103
   738G11  H01250068   2.734   3.218  14.145
   738G11  C0BN50069   2.542   3.163  14.047
   738G11  C0CG50070   2.568   3.028  14.030
   738G11  C0CF50071   2.691   2.966  14.090
   738G11  H01350072   2.760   3.019  14.154
   738G11  O00G50073   2.719   2.833  14.069
   738G11  C0AA50074   2.642   2.766  13.970
   738G11  C0A950075   2.687   2.645  13.945
   738G11  H00U50076   2.780   2.603  13.982
   738G11  C0A850077   2.603   2.560  13.870
   738G11  H00V50078   2.641   2.459  13.876
   738G11  C0A750079   2.478   2.603  13.821
   738G11  C0A650080   2.436   2.739  13.848
   738G11  C0A550081   2.316   2.797  13.807
   738G11  C0A450082   2.219   2.724  13.724
   738G11  C0A350083   2.192   2.586  13.685
   738G11  C0A250084   2.267   2.475  13.730
   738G11  C0A150085   2.246   2.347  13.675
   738G11  C0A050086   2.128   2.269  13.624
   738G11  C09Z50087   2.151   2.135  13.590
   738G11  C09Y50088   2.042   2.048  13.562
   738G11  H00Y50089   2.057   1.943  13.540
   738G11  C09X50090   1.911   2.098  13.574
   738G11  C09W50091   1.805   2.005  13.547
   738G11  H00R50092   1.827   1.902  13.525
   738G11  C0AX50093   1.670   2.046  13.534
   738G11  H00S50094   1.597   1.972  13.505
   738G11  C0AW50095   1.644   2.180  13.567
   738G11  H00T50096   1.540   2.209  13.571
   738G11  C0AN50097   1.748   2.276  13.603
   738G11  C0AO50098   1.718   2.408  13.626
   738G11  C0AM50099   1.881   2.234  13.600
   738G11  C0B250100   2.278   2.072  13.580
   738G11  O00D50101   2.303   1.957  13.545
   738G11  C0B150102   2.389   2.144  13.630
   738G11  H00W50103   2.481   2.088  13.623
   738G11  C0AL50104   1.991   2.323  13.625
   738G11  C0AK50105   1.957   2.457  13.638
   738G11  C0B050106   2.372   2.278  13.677
   738G11  C0AZ50107   2.471   2.372  13.728
   738G11  H00X50108   2.576   2.349  13.732
   738G11  C0AJ50109   2.058   2.566  13.651
   738G11  C0AH50110   2.100   2.789  13.691
   738G11  C0AE50111   2.284   2.936  13.830
   738G11  C0AD50112   2.368   3.012  13.908
   738G11  C0AY50113   2.404   2.489  13.767
   738G11  C0AB50114   2.519   2.819  13.925
   738G11  C0AC50115   2.488   2.955  13.949
   738G11  C0BM50116   2.428   3.225  14.003
   738G11  C0CM50117   2.740   3.492  14.086
   738G11  C09M50118   2.713   3.629  14.132
   738G11  C09850119   2.820   3.699  14.201
   738G11  C08R50120   2.847   3.839  14.234
   738G11  C08Q50121   2.963   3.864  14.303
   738G11  C08P50122   3.053   3.976  14.332
   738G11  C08Y50123   3.186   3.946  14.376
   738G11  C09750124   3.229   3.818  14.339
   738G11  C09650125   3.352   3.825  14.277
   738G11  C09050126   3.406   3.952  14.319
   738G11  C09550127   3.526   4.007  14.271
   738G11  C09450128   3.583   4.133  14.301
   738G11  C08J50129   3.515   4.256  14.339
   738G11  C08I50130   3.567   4.351  14.254
   738G11  C08H50131   3.469   4.456  14.238
   738G11  C08G50132   3.344   4.404  14.291
   738G11  C08F50133   3.208   4.448  14.310
   738G11  C08E50134   3.180   4.587  14.318
   738G11  C05950135   3.281   4.690  14.334
   738G11  C05850136   3.240   4.822  14.367
   738G11  C05750137   3.323   4.940  14.368
   738G11  C05650138   3.454   4.911  14.336
   738G11  C05550139   3.509   4.786  14.333
   738G11  C05450140   3.629   4.789  14.262
   738G11  C05350141   3.645   4.924  14.212
   738G11  C05250142   3.732   4.973  14.108
   738G11  C05150143   3.822   4.888  14.033
   738G11  C05U50144   3.830   4.746  14.039
   738G11  C05T50145   3.755   4.645  14.114
   738G11  C06K50146   3.840   4.532  14.101
   738G11  H00J50147   3.826   4.454  14.174
   738G11  C06L50148   3.932   4.541  13.995
   738G11  H00I50149   4.000   4.469  13.951
   738G11  C05V50150   3.936   4.679  13.964
   738G11  C06J50151   4.037   4.746  13.894
   738G11  H00K50152   4.121   4.698  13.847
   738G11  C05X50153   4.024   4.882  13.877
   738G11  C06I50154   4.121   4.953  13.796
   738G11  H00L50155   4.198   4.892  13.752
   738G11  C04Z50156   4.122   5.089  13.792
   738G11  C06H50157   4.226   5.157  13.716
   738G11  H00H50158   4.307   5.099  13.675
   738G11  C04Y50159   4.219   5.305  13.703
   738G11  C06G50160   4.328   5.381  13.648
   738G11  O00950161   4.435   5.331  13.610
   738G11  O00850162   4.309   5.511  13.630
   738G11  C04P50163   4.206   5.581  13.669
   738G11  C04J50164   4.191   5.722  13.645
   738G11  C04Q50165   4.273   5.816  13.575
   738G11  H00E50166   4.367   5.780  13.536
   738G11  C04M50167   4.238   5.945  13.543
   738G11  C04R50168   4.326   6.037  13.476
   738G11  H00F50169   4.427   6.013  13.449
   738G11  C04S50170   4.281   6.158  13.442
   738G11  H00G50171   4.337   6.229  13.384
   738G11  O00750172   4.149   6.198  13.470
   738G11  C03V50173   4.069   6.113  13.542
   738G11  C03U50174   3.933   6.146  13.564
   738G11  O00650175   3.887   6.263  13.510
   738G11  C03F50176   3.754   6.282  13.516
   738G11  C03E50177   3.670   6.223  13.616
   738G11  C03D50178   3.720   6.111  13.685
   738G11  C03C50179   3.643   6.047  13.778
   738G11  C03B50180   3.519   6.108  13.806
   738G11  C03A50181   3.436   6.040  13.893
   738G11  C03950182   3.464   5.912  13.947
   738G11  C03850183   3.338   5.880  14.016
   738G11  C03750184   3.258   5.997  14.007
   738G11  C03650185   3.140   6.005  14.068
   738G11  C02R50186   3.044   6.103  14.067
   738G11  C03550187   2.931   6.041  14.135
   738G11  C03R50188   2.967   5.917  14.182
   738G11  C03S50189   2.875   5.813  14.203
   738G11  C04950190   2.927   5.683  14.222
   738G11  C04850191   3.064   5.673  14.203
   738G11  C03P50192   3.156   5.773  14.150
   738G11  C04750193   3.103   5.537  14.245
   738G11  C04650194   3.230   5.492  14.246
   738G11  C04550195   3.344   5.548  14.194
   738G11  C03T50196   3.372   5.658  14.116
   738G11  C04450197   3.509   5.653  14.071
   738G11  C04350198   3.573   5.545  14.137
   738G11  C04250199   3.665   5.493  14.049
   738G11  C04150200   3.699   5.611  13.970
   738G11  C04050201   3.812   5.626  13.890
   738G11  C03Z50202   3.857   5.740  13.814
   738G11  C04H50203   3.986   5.705  13.773
   738G11  C04G50204   3.999   5.572  13.791
   738G11  C03N50205   3.806   5.873  13.784
   738G11  C03Y50206   3.895   5.950  13.703
   738G11  C03X50207   4.028   5.910  13.669
   738G11  C04F50208   3.896   5.515  13.862
   738G11  C04E50209   3.905   5.375  13.889
   738G11  C04O50210   4.014   5.306  13.836
   738G11  C04D50211   3.810   5.304  13.966
   738G11  C04V50212   3.821   5.166  13.986
   738G11  C04W50213   3.927   5.089  13.926
   738G11  C04C50214   3.698   5.349  14.037
   738G11  C04L50215   3.644   5.235  14.107
   738G11  C04U50216   3.564   5.246  14.226
   738G11  C05Q50217   3.508   5.131  14.281
   738G11  C05P50218   3.385   5.169  14.333
   738G11  C04T50219   3.351   5.297  14.303
   738G11  C04B50220   3.470   5.348  14.246
   738G11  C03M50221   3.601   5.716  13.981
   738G11  C04A50222   3.467   5.474  14.194
   738G11  C05H50223   3.226   5.366  14.299
   738G11  C05G50224   3.091   5.328  14.326
   738G11  C05F50225   3.057   5.210  14.394
   738G11  C05E50226   2.922   5.168  14.384
   738G11  C05L50227   2.790   5.219  14.348
   738G11  C05K50228   2.765   5.354  14.317
   738G11  C05J50229   2.864   5.453  14.290
   738G11  C06650230   2.629   5.391  14.303
   738G11  C06550231   2.525   5.298  14.314
   738G11  C06450232   2.551   5.162  14.341
   738G11  C06N50233   2.389   5.332  14.312
   738G11  C06950234   2.356   5.469  14.291
   738G11  C06P50235   2.220   5.506  14.279
   738G11  C06R50236   2.192   5.637  14.246
   738G11  C06B50237   2.284   5.734  14.232
   738G11  C06S50238   2.243   5.856  14.186
   738G11  C02G50239   2.341   5.950  14.148
   738G11  C02F50240   2.314   6.071  14.091
   738G11  C02750241   2.180   6.097  14.061
   738G11  C02650242   2.152   6.211  13.990
   738G11  C00E50243   2.021   6.235  13.949
   738G11  C00D50244   1.992   6.339  13.864
   738G11  C00C50245   1.859   6.360  13.833
   738G11  C00B50246   1.759   6.280  13.856
   738G11  C01550247   1.786   6.175  13.940
   738G11  C07F50248   1.686   6.088  13.967
   738G11  C07E50249   1.715   5.973  14.044
   738G11  C06W50250   1.851   5.949  14.082
   738G11  C06V50251   1.947   6.035  14.059
   738G11  C06X50252   1.888   5.826  14.140
   738G11  C07B50253   1.787   5.734  14.162
   738G11  C07C50254   1.655   5.758  14.124
   738G11  C0FU50255   1.563   5.655  14.140
   738G11  C0F750256   1.432   5.682  14.112
   738G11  C0F650257   1.333   5.585  14.142
   738G11  C0F850258   1.197   5.613  14.122
   738G11  C0F950259   1.097   5.525  14.163
   738G11  C0FA50260   0.969   5.567  14.171
   738G11  C0FZ50261   0.940   5.690  14.120
   738G11  C0G050262   0.813   5.751  14.143
   738G11  C0GD50263   0.721   5.693  14.234
   738G11  C0FC50264   0.755   5.566  14.287
   738G11  C0GH50265   0.668   5.495  14.371
   738G11  C0EY50266   0.695   5.365  14.409
   738G11  C0EX50267   0.609   5.292  14.494
   738G11  C0EW50268   0.632   5.154  14.520
   738G11  C0FR50269   0.544   5.083  14.605
   738G11  H01D50270   0.554   4.978  14.627
   738G11  C0FS50271   0.432   5.143  14.659
   738G11  H01C50272   0.359   5.095  14.722
   738G11  C0GJ50273   0.408   5.274  14.619
   738G11  H01N50274   0.325   5.328  14.664
   738G11  C0EV50275   0.746   5.095  14.473
   738G11  C0FT50276   0.782   4.954  14.489
   738G11  H01E50277   0.708   4.887  14.530
   738G11  C0EU50278   0.847   5.174  14.409
   738G11  C0ET50279   0.971   5.119  14.370
   738G11  C0EI50280   1.073   5.189  14.308
   738G11  C0F150281   1.037   5.317  14.264
   738G11  C0F050282   0.911   5.373  14.295
   738G11  C0EH50283   1.204   5.141  14.295
   738G11  C0EG50284   1.238   5.000  14.318
   738G11  C0EJ50285   1.304   5.233  14.260
   738G11  C0F350286   1.270   5.362  14.221
   738G11  C0EK50287   1.437   5.202  14.275
   738G11  C0EL50288   1.476   5.064  14.310
   738G11  C0EM50289   1.618   5.053  14.344
   738G11  C0EN50290   1.696   5.170  14.343
   738G11  C07I50291   1.829   5.138  14.356
   738G11  C07450292   1.927   5.230  14.330
   738G11  C07350293   2.058   5.183  14.332
   738G11  C07250294   2.158   5.278  14.326
   738G11  C07550295   1.889   5.357  14.305
   738G11  C07650296   1.754   5.387  14.280
   738G11  C07850297   1.724   5.509  14.227
   738G11  C07G50298   1.990   5.455  14.291
   738G11  C07050299   1.955   5.580  14.248
   738G11  C07Z50300   1.843   4.998  14.349
   738G11  C07750301   1.660   5.289  14.284
   738G11  C0EO50302   1.529   5.306  14.258
   738G11  C0F450303   1.499   5.433  14.209
   738G11  C0EQ50304   1.000   4.984  14.395
   738G11  C0FQ50305   0.495   5.353  14.544
   738G11  C0GI50306   0.470   5.481  14.505
   738G11  H01L50307   0.380   5.534  14.535
   738G11  C0EZ50308   0.815   5.306  14.370
   738G11  C0GG50309   0.548   5.557  14.416
   738G11  C0GF50310   0.518   5.684  14.373
   738G11  H01M50311   0.423   5.729  14.398
   738G11  C0GE50312   0.600   5.749  14.280
   738G11  H01K50313   0.569   5.844  14.240
   738G11  O00J50314   0.782   5.871  14.088
   738G11  C0GA50315   0.868   5.924  14.003
   738G11  C0G950316   0.820   6.028  13.918
   738G11  H01H50317   0.717   6.059  13.921
   738G11  C0G850318   0.913   6.092  13.834
   738G11  C0G750319   0.883   6.188  13.728
   738G11  H01I50320   0.778   6.207  13.711
   738G11  O00I50321   0.974   6.236  13.648
   738G11  C0G650322   1.106   6.246  13.702
   738G11  H01J50323   1.167   6.326  13.664
   738G11  C02D50324   1.152   6.156  13.797
   738G11  C02C50325   1.289   6.145  13.836
   738G11  C01750326   1.396   6.230  13.791
   738G11  C01650327   1.529   6.213  13.837
   738G11  O00150328   1.377   6.325  13.694
   738G11  C01850329   1.478   6.407  13.647
   738G11  C00950330   1.604   6.402  13.706
   738G11  C00850331   1.717   6.480  13.664
   738G11  C00750332   1.750   6.573  13.556
   738G11  C00650333   1.667   6.603  13.452
   738G11  C00550334   1.704   6.684  13.340
   738G11  C00450335   1.830   6.754  13.315
   738G11  C00350336   1.966   6.747  13.376
   738G11  C00250337   2.073   6.816  13.313
   738G11  C00P50338   2.203   6.797  13.360
   738G11  C00O50339   2.313   6.846  13.293
   738G11  C00N50340   2.448   6.824  13.332
   738G11  C01050341   2.550   6.854  13.246
   738G11  C01150342   2.684   6.819  13.281
   738G11  C01Q50343   2.784   6.850  13.190
   738G11  C01U50344   2.753   6.912  13.062
   738G11  C01250345   2.618   6.949  13.037
   738G11  H00050346   2.599   7.002  12.945
   738G11  C01V50347   2.858   6.928  12.975
   738G11  H00750348   2.839   6.953  12.872
   738G11  O00550349   2.987   6.903  13.012
   738G11  C01W50350   3.016   6.858  13.140
   738G11  C03150351   3.150   6.836  13.175
   738G11  C03250352   3.180   6.801  13.307
   738G11  H00A50353   3.280   6.771  13.334
   738G11  C03350354   3.084   6.779  13.402
   738G11  H00B50355   3.108   6.745  13.502
   738G11  C01O50356   2.948   6.776  13.359
   738G11  C01N50357   2.843   6.733  13.439
   738G11  C01M50358   2.861   6.658  13.568
   738G11  C01L50359   2.966   6.578  13.640
   738G11  C01K50360   2.904   6.528  13.756
   738G11  C01Y50361   2.947   6.424  13.838
   738G11  C02I50362   3.071   6.371  13.811
   738G11  C02N50363   3.115   6.262  13.888
   738G11  C02M50364   3.251   6.214  13.861
   738G11  C02L50365   3.335   6.269  13.765
   738G11  C02K50366   3.284   6.365  13.683
   738G11  C02U50367   3.358   6.409  13.570
   738G11  C02V50368   3.489   6.366  13.556
   738G11  C03H50369   3.572   6.429  13.459
   738G11  H00C50370   3.538   6.524  13.418
   738G11  C02W50371   3.292   6.458  13.464
   738G11  C02X50372   3.162   6.503  13.484
   738G11  C02Y50373   3.117   6.514  13.357
   738G11  H00850374   3.015   6.529  13.322
   738G11  C02Z50375   3.228   6.490  13.258
   738G11  O00450376   3.228   6.516  13.138
   738G11  O00350377   3.335   6.452  13.334
   738G11  C02J50378   3.149   6.417  13.703
   738G11  C01Z50379   2.848   6.374  13.924
   738G11  C02050380   2.716   6.412  13.915
   738G11  C01I50381   2.675   6.522  13.837
   738G11  C01H50382   2.547   6.544  13.793
   738G11  C00K50383   2.517   6.629  13.684
   738G11  C01S50384   2.619   6.683  13.611
   738G11  C01450385   2.599   6.740  13.489
   738G11  C00J50386   2.386   6.642  13.636
   738G11  C00I50387   2.291   6.568  13.696
   738G11  C00H50388   2.323   6.475  13.797
   738G11  C00G50389   2.224   6.400  13.855
   738G11  C00S50390   2.160   6.579  13.645
   738G11  C00T50391   2.066   6.509  13.711
   738G11  C00U50392   1.933   6.539  13.688
   738G11  C00R50393   2.126   6.658  13.540
   738G11  C00L50394   2.360   6.713  13.522
   738G11  C02850395   2.451   6.461  13.848
   738G11  C02350396   2.486   6.357  13.936
   738G11  C02450397   2.381   6.268  13.977
   738G11  C02150398   2.614   6.331  13.964
   738G11  C02250399   2.642   6.216  14.028
   738G11  C02H50400   2.547   6.123  14.067
   738G11  C03050401   2.578   6.002  14.126
   738G11  C03450402   2.706   5.977  14.151
   738G11  C02P50403   2.778   6.185  14.048
   738G11  C02B50404   2.883   6.262  13.992
   738G11  C01J50405   2.774   6.579  13.765
   738G11  C01X50406   3.085   6.506  13.602
   738G11  C01T50407   2.749   6.647  13.650
   738G11  H00950408   3.231   6.845  13.105
   738G11  C01P50409   2.916   6.829  13.231
   738G11  C01R50410   2.708   6.759  13.405
   738G11  C00Z50411   2.522   6.921  13.129
   738G11  O00050412   2.394   6.967  13.095
   738G11  C00M50413   2.468   6.762  13.450
   738G11  C00Y50414   2.292   6.923  13.178
   738G11  C01350415   2.163   6.958  13.138
   738G11  H00150416   2.150   7.013  13.045
   738G11  C00Q50417   2.231   6.726  13.472
   738G11  C00150418   2.053   6.903  13.204
   738G11  C00050419   1.921   6.922  13.157
   738G11  H00650420   1.911   7.000  13.083
   738G11  C00W50421   1.995   6.667  13.489
   738G11  C01G50422   1.818   6.847  13.206
   738G11  H00550423   1.723   6.863  13.157
   738G11  C01C50424   1.582   6.693  13.263
   738G11  H00250425   1.574   6.740  13.166
   738G11  C01B50426   1.474   6.623  13.330
   738G11  C01D50427   1.336   6.622  13.297
   738G11  H00350428   1.294   6.667  13.208
   738G11  C01E50429   1.260   6.549  13.380
   738G11  H00450430   1.153   6.562  13.373
   738G11  O00250431   1.310   6.482  13.493
   738G11  C01A50432   1.526   6.565  13.449
   738G11  C00V50433   1.890   6.600  13.568
   738G11  C01950434   1.440   6.489  13.533
   738G11  C02E50435   1.326   6.032  13.913
   738G11  C0FX50436   1.230   5.940  13.953
   738G11  C0FW50437   1.265   5.824  14.018
   738G11  C0GB50438   1.097   5.958  13.929
   738G11  C0G350439   1.459   6.016  13.958
   738G11  C07H50440   1.490   5.902  14.027
   738G11  C0GC50441   1.053   6.068  13.849
   738G11  C0G250442   0.998   5.879  13.989
   738G11  C0G150443   1.037   5.768  14.061
   738G11  C0FB50444   0.876   5.503  14.251
   738G11  C0F250445   1.136   5.400  14.213
   738G11  C0FY50446   1.169   5.737  14.064
   738G11  C0F550447   1.364   5.463  14.189
   738G11  C0FV50448   1.396   5.803  14.049
   738G11  C07950449   1.596   5.535  14.188
   738G11  C07A50450   1.819   5.611  14.216
   738G11  C06Y50451   2.021   5.795  14.181
   738G11  C07D50452   1.620   5.881  14.067
   738G11  C01F50453   1.559   6.105  13.922
   738G11  C00A50454   1.631   6.296  13.799
   738G11  C00X50455   1.832   6.466  13.745
   738G11  C00F50456   2.095   6.416  13.811
   738G11  C02950457   1.919   6.144  13.981
   738G11  C02550458   2.252   6.296  13.948
   738G11  C06U50459   2.082   6.004  14.093
   738G11  C02A50460   2.415   6.158  14.051
   738G11  C05Y50461   2.480   5.916  14.168
   738G11  C05Z50462   2.517   5.792  14.227
   738G11  C06050463   2.654   5.758  14.237
   738G11  C06250464   2.691   5.624  14.258
   738G11  C06T50465   2.113   5.884  14.151
   738G11  C06A50466   2.421   5.699  14.249
   738G11  C06Z50467   2.055   5.671  14.231
   738G11  C06Q50468   2.121   5.411  14.305
   738G11  C06850469   2.457   5.567  14.273
   738G11  C06750470   2.593   5.530  14.281
   738G11  C06350471   2.686   5.123  14.353
   738G11  C06C50472   2.708   4.980  14.351
   738G11  C06D50473   2.835   4.931  14.370
   738G11  C06E50474   2.873   4.798  14.353
   738G11  C07Q50475   2.775   4.708  14.336
   738G11  C07P50476   2.639   4.752  14.335
   738G11  C07T50477   2.539   4.656  14.324
   738G11  C07U50478   2.405   4.696  14.325
   738G11  C07V50479   2.310   4.597  14.312
   738G11  C08450480   2.341   4.467  14.293
   738G11  C08C50481   2.477   4.434  14.278
   738G11  C08B50482   2.508   4.302  14.250
   738G11  C08A50483   2.640   4.268  14.246
   738G11  C08950484   2.740   4.355  14.270
   738G11  C08850485   2.876   4.304  14.285
   738G11  C08750486   2.977   4.393  14.308
   738G11  C08650487   2.944   4.527  14.321
   738G11  C08X50488   2.907   4.168  14.273
   738G11  C08T50489   2.797   4.080  14.233
   738G11  C08D50490   2.708   4.481  14.301
   738G11  C08U50491   2.671   4.138  14.226
   738G11  C08V50492   2.577   4.044  14.198
   738G11  C0CY50493   2.443   4.073  14.204
   738G11  C0CX50494   2.352   3.978  14.183
   738G11  C0CW50495   2.216   4.010  14.194
   738G11  C0CV50496   2.177   4.141  14.228
   738G11  C0D450497   2.275   4.238  14.253
   738G11  C0CU50498   2.044   4.166  14.248
   738G11  C0CT50499   1.940   4.081  14.220
   738G11  C0CS50500   1.981   3.955  14.177
   738G11  C0D650501   2.022   4.300  14.288
   738G11  C0EC50502   2.114   4.399  14.304
   738G11  C07X50503   2.080   4.531  14.329
   738G11  C0DL50504   1.885   4.332  14.302
   738G11  C0DK50505   1.851   4.465  14.320
   738G11  C0DN50506   1.722   4.477  14.288
   738G11  C0D850507   1.778   4.254  14.261
   738G11  C08W50508   2.627   3.918  14.170
   738G11  C0CQ50509   2.532   3.811  14.143
   738G11  C09350510   2.411   4.203  14.235
   738G11  C09250511   2.248   4.366  14.283
   738G11  C08550512   2.574   4.527  14.302
   738G11  C07S50513   2.810   4.573  14.318
   738G11  C06F50514   3.010   4.759  14.351
   738G11  C07O50515   2.608   4.887  14.338
   738G11  C07N50516   2.477   4.925  14.343
   738G11  C05D50517   2.934   5.025  14.396
   738G11  C05C50518   3.067   4.983  14.404
   738G11  C05N50519   3.145   5.096  14.400
   738G11  C05M50520   3.009   5.436  14.291
   738G11  C05I50521   2.828   5.586  14.258
   738G11  C06150522   2.744   5.851  14.201
   738G11  C02Q50523   2.799   6.071  14.116
   738G11  C02O50524   3.016   6.207  13.979
   738G11  C03Q50525   3.095   5.899  14.143
   738G11  C03O50526   3.285   5.761  14.085
   738G11  C03L50527   3.587   5.844  13.916
   738G11  C02S50528   3.306   6.092  13.922
   738G11  C02T50529   3.459   6.219  13.739
   738G11  C03K50530   3.679   5.921  13.828
   738G11  C03I50531   3.536   6.271  13.638
   738G11  C03G50532   3.703   6.382  13.434
   738G11  H00D50533   3.772   6.443  13.378
   738G11  C03J50534   3.849   6.067  13.648
   738G11  C03W50535   4.115   5.989  13.590
   738G11  C04I50536   4.076   5.784  13.700
   738G11  C04K50537   4.110   5.513  13.737
   738G11  C04N50538   4.115   5.376  13.765
   738G11  C04X50539   4.023   5.163  13.854
   738G11  C05050540   3.922   4.950  13.945
   738G11  C05W50541   3.719   5.110  14.064
   738G11  C05S50542   3.636   4.667  14.192
   738G11  C05R50543   3.545   4.999  14.275
   738G11  C05O50544   3.286   5.075  14.373
   738G11  C05B50545   3.108   4.847  14.374
   738G11  C05A50546   3.421   4.682  14.297
   738G11  C07R50547   3.045   4.623  14.326
   738G11  C08N50548   3.109   4.351  14.311
   738G11  C08M50549   3.137   4.216  14.322
   738G11  C08L50550   3.271   4.174  14.339
   738G11  C09150551   3.505   4.593  14.222
   738G11  C09K50552   3.659   4.286  14.157
   738G11  H00M50553   3.672   4.320  14.056
   738G11  C08K50554   3.373   4.275  14.329
   738G11  C09J50555   3.689   4.155  14.209
   738G11  C09I50556   3.718   4.025  14.149
   738G11  C09L50557   3.823   3.998  14.058
   738G11  H00N50558   3.898   4.072  14.032
   738G11  C09Q50559   3.819   3.877  14.008
   738G11  H00O50560   3.895   3.863  13.933
   738G11  O00B50561   3.737   3.773  14.051
   738G11  C09G50562   3.625   3.810  14.118
   738G11  C09F50563   3.524   3.705  14.119
   738G11  O00A50564   3.559   3.590  14.052
   738G11  C09P50565   3.457   3.510  14.002
   738G11  H00P50566   3.484   3.457  13.912
   738G11  C09O50567   3.331   3.498  14.072
   738G11  C09D50568   3.296   3.608  14.162
   738G11  C09C50569   3.163   3.626  14.225
   738G11  C09N50570   3.032   3.572  14.191
   738G11  C09T50571   2.999   3.490  14.077
   738G11  C09S50572   3.101   3.402  14.027
   738G11  C0CP50573   3.028   3.305  13.963
   738G11  C0CN50574   2.891   3.331  13.962
   738G11  C0CO50575   2.814   3.241  13.886
   738G11  H01450576   2.714   3.265  13.855
   738G11  C0CZ50577   2.878   3.123  13.847
   738G11  H01550578   2.806   3.055  13.804
   738G11  C0D050579   3.014   3.090  13.876
   738G11  C0G550580   3.076   2.960  13.846
   738G11  H01F50581   3.022   2.878  13.801
   738G11  C0G450582   3.206   2.945  13.865
   738G11  H01G50583   3.247   2.847  13.848
   738G11  O00H50584   3.290   3.041  13.906
   738G11  C0D250585   3.236   3.162  13.932
   738G11  C09V50586   3.305   3.271  13.980
   738G11  H00Q50587   3.411   3.251  13.987
   738G11  C0D150588   3.096   3.190  13.921
   738G11  C09R50589   3.245   3.391  14.032
   738G11  C09H50590   3.619   3.932  14.185
   738G11  C09E50591   3.393   3.716  14.188
   738G11  C09B50592   3.138   3.718  14.325
   738G11  C08Z50593   3.291   4.031  14.346
   738G11  C08O50594   3.032   4.115  14.315
   738G11  C09A50595   2.999   3.737  14.352
   738G11  C08S50596   2.765   3.942  14.200
   738G11  C09950597   2.937   3.639  14.266
   738G11  C09U50598   2.866   3.445  14.047
   738G11  C0BO50599   2.396   3.360  14.027
   738G11  C0CL50600   2.571   3.678  14.118
   738G11  C0D350601   2.391   3.848  14.145
   738G11  C0D550602   2.117   3.917  14.161
   738G11  C0BR50603   2.235   3.542  14.026
   738G11  C0BQ50604   2.271   3.408  13.996
   738G11  C0BL50605   2.338   3.145  13.931
   738G11  C0AF50606   2.159   2.994  13.796
   738G11  C0BH50607   1.948   3.275  13.888
   738G11  C0BG50608   1.811   3.307  13.898
   738G11  C0BD50609   1.757   3.109  13.773
   738G11  C0AG50610   2.063   2.914  13.738
   738G11  C0AI50611   2.006   2.698  13.652
   738G11  C0AV50612   1.825   2.500  13.627
   738G11  C0BB50613   1.621   2.805  13.620
   738G11  O00C50614   1.583   2.454  13.631
   738G11  C0BC50615   1.482   2.804  13.630
   738G11  C0B950616   1.663   3.012  13.728
   738G11  O00E50617   1.359   3.144  13.897
   738G11  C0CA50618   1.322   3.252  13.967
   738G11  O00F50619   1.213   3.246  14.027
   738G11  C0BF50620   1.718   3.211  13.855
   738G11  C0C550621   1.411   3.362  13.981
   738G11  C0C450622   1.367   3.489  14.036
   738G11  H01150623   1.268   3.500  14.077
   738G11  C0C850624   1.770   3.423  13.964
   738G11  C0C250625   1.460   3.597  14.050
   738G11  C0C350626   1.431   3.728  14.094
   738G11  C0DY50627   1.300   3.788  14.100
   738G11  H01650628   1.204   3.743  14.081
   738G11  C0DX50629   1.328   3.929  14.126
   738G11  C0DW50630   1.218   4.018  14.125
   738G11  C0BY50631   1.825   3.639  14.057
   738G11  C0DB50632   1.528   3.824  14.119
   738G11  C0CC50633   1.882   3.863  14.148
   738G11  C0D750634   1.802   4.117  14.224
   738G11  C0DZ50635   1.470   3.954  14.140
   738G11  C0DM50636   1.664   4.347  14.270
   738G11  C0DQ50637   1.334   4.227  14.207
   738G11  C0DV50638   1.227   4.150  14.167
   738G11  C0E050639   1.080   3.996  14.095
   738G11  C0FO50640   0.802   4.179  14.245
   738G11  C0E350641   0.987   3.895  14.148
   738G11  H01750642   1.010   3.804  14.203
   738G11  C0GV50643   0.728   4.085  14.316
   738G11  C0ES50644   0.844   4.294  14.316
   738G11  C0GQ50645   0.628   4.262  14.620
   738G11  C0FJ50646   0.745   4.602  14.689
   738G11  C0ED50647   0.911   4.540  14.462
   738G11  C0ER50648   0.908   4.900  14.447
   738G11  C0EP50649   1.120   4.920  14.357
   738G11  C0E650650   1.126   4.536  14.325
   738G11  C0DE50651   1.424   4.580  14.278
   738G11  C0EA50652   1.373   4.959  14.306
   738G11  C0DF50653   1.546   4.639  14.250
   738G11  C08050654   1.708   4.946  14.349
   738G11  C0DO50655   1.674   4.604  14.280
   738G11  C0DJ50656   1.946   4.572  14.330
   738G11  C07K50657   1.979   4.953  14.340
   738G11  C07W50658   2.175   4.636  14.322
   738G11  C08350659   2.372   4.832  14.342
   738G11  C07J50660   2.082   5.048  14.341
   738G11  C06O50661   2.288   5.235  14.326
   738G11  C06M50662   2.449   5.061  14.342
   748G11  C07150663   6.722   6.298   9.590
   748G11  C07L50664   6.766   6.226   9.481
   748G11  C07M50665   6.718   6.099   9.447
   748G11  C07Y50666   6.766   6.027   9.336
   748G11  C08150667   6.872   6.072   9.257
   748G11  C08250668   6.918   5.984   9.155
   748G11  C0DI50669   7.029   5.999   9.056
   748G11  C0DH50670   7.126   6.097   9.036
   748G11  C0DG50671   7.199   6.081   8.915
   748G11  C0E950672   7.345   6.087   8.897
   748G11  C0E850673   7.374   5.969   8.808
   748G11  C0E750674   7.485   5.948   8.713
   748G11  C0EB50675   7.602   6.030   8.722
   748G11  C0EF50676   7.718   6.026   8.629
   748G11  C0EE50677   7.722   6.030   8.487
   748G11  C0FD50678   7.788   6.130   8.419
   748G11  C0FE50679   7.821   6.258   8.475
   748G11  H01B50680   7.781   6.280   8.573
   748G11  C0FF50681   7.915   6.343   8.416
   748G11  H01A50682   7.948   6.429   8.472
   748G11  C0FG50683   7.960   6.306   8.290
   748G11  H01850684   8.025   6.377   8.241
   748G11  C0FH50685   7.906   6.195   8.218
   748G11  C0FI50686   7.929   6.166   8.080
   748G11  H01950687   7.997   6.227   8.023
   748G11  O00K50688   7.855   6.077   8.007
   748G11  C0FL50689   7.775   5.984   8.081
   748G11  C0FK50690   7.769   5.991   8.225
   748G11  C0FM50691   7.690   5.897   8.293
   748G11  C0FN50692   7.651   5.785   8.221
   748G11  C0FP50693   7.649   5.787   8.083
   748G11  C0GO50694   7.583   5.690   8.008
   748G11  C0GN50695   7.551   5.693   7.873
   748G11  C0GR50696   7.613   5.802   7.807
   748G11  C0GS50697   7.581   5.827   7.674
   748G11  H01Q50698   7.623   5.916   7.630
   748G11  C0GT50699   7.496   5.736   7.604
   748G11  H01O50700   7.471   5.757   7.501
   748G11  C0GU50701   7.443   5.627   7.671
   748G11  H01P50702   7.387   5.554   7.615
   748G11  O00L50703   7.703   5.886   7.869
   748G11  C0GM50704   7.465   5.597   7.810
   748G11  C0GL50705   7.415   5.487   7.892
   748G11  H01R50706   7.357   5.406   7.849
   748G11  C0GK50707   7.466   5.474   8.024
   748G11  C0GP50708   7.442   5.387   8.137
   748G11  C0E250709   7.523   5.431   8.246
   748G11  C0E150710   7.442   5.407   8.365
   748G11  C0DU50711   7.408   5.503   8.464
   748G11  C0DT50712   7.466   5.623   8.502
   748G11  C0E450713   7.560   5.697   8.430
   748G11  C0E550714   7.584   5.816   8.498
   748G11  C0DS50715   7.421   5.709   8.605
   748G11  C0DR50716   7.304   5.665   8.667
   748G11  C0DD50717   7.234   5.733   8.771
   748G11  C0DC50718   7.123   5.645   8.793
   748G11  C0DP50719   7.112   5.530   8.703
   748G11  C0DA50720   7.025   5.409   8.696
   748G11  C0D950721   6.933   5.355   8.801
   748G11  C0CR50722   6.868   5.229   8.790
   748G11  C0C050723   6.898   5.143   8.688
   748G11  C0BZ50724   6.853   5.009   8.669
   748G11  C0C150725   6.861   4.945   8.547
   748G11  C0C750726   6.825   4.813   8.540
   748G11  C0C650727   6.847   4.740   8.419
   748G11  C0C950728   6.818   4.608   8.413
   748G11  C0B850729   6.836   4.537   8.292
   748G11  C0B750730   6.812   4.397   8.285
   748G11  C0B650731   6.822   4.298   8.176
   748G11  C0B550732   6.794   4.326   8.039
   748G11  H00Z50733   6.791   4.426   7.997
   748G11  C0B450734   6.724   4.214   7.983
   748G11  H01050735   6.663   4.216   7.894
   748G11  C0B350736   6.729   4.106   8.075
   748G11  C0AP50737   6.639   4.005   8.127
   748G11  C0AQ50738   6.657   4.016   8.271
   748G11  C0AR50739   6.558   3.968   8.355
   748G11  C0AS50740   6.552   4.036   8.474
   748G11  C0AT50741   6.624   4.152   8.499
   748G11  C0BA50742   6.715   4.205   8.405
   748G11  C0AU50743   6.581   4.236   8.601
   748G11  C0BE50744   6.636   4.359   8.612
   748G11  C0BI50745   6.604   4.436   8.727
   748G11  C0BJ50746   6.507   4.389   8.818
   748G11  C0BK50747   6.469   4.464   8.924
   748G11  C0BW50748   6.532   4.589   8.950
   748G11  C0BV50749   6.622   4.639   8.860
   748G11  C0BU50750   6.665   4.769   8.867
   748G11  C0BX50751   6.734   4.825   8.760
   748G11  C0BT50752   6.624   4.852   8.973
   748G11  C0CD50753   6.661   4.989   8.973
   748G11  C0CB50754   6.747   5.042   8.880
   748G11  C0CE50755   6.614   5.070   9.075
   748G11  C0CK50756   6.519   5.015   9.166
   748G11  C0BS50757   6.485   4.879   9.171
   748G11  C0CJ50758   6.394   4.831   9.261
   748G11  C0BP50759   6.350   4.698   9.252
   748G11  C0CI50760   6.254   4.647   9.339
   748G11  C0CH50761   6.184   4.536   9.297
   748G11  H01250762   6.112   4.512   9.374
   748G11  C0BN50763   6.207   4.465   9.181
   748G11  C0CG50764   6.134   4.359   9.143
   748G11  C0CF50765   6.016   4.323   9.221
   748G11  H01350766   5.987   4.378   9.309
   748G11  O00G50767   5.936   4.214   9.184
   748G11  C0AA50768   5.979   4.139   9.077
   748G11  C0A950769   5.915   4.017   9.059
   748G11  H00U50770   5.836   3.998   9.131
   748G11  C0A850771   5.942   3.936   8.950
   748G11  H00V50772   5.892   3.841   8.947
   748G11  C0A750773   6.032   3.979   8.845
   748G11  C0A650774   6.122   4.088   8.884
   748G11  C0A550775   6.238   4.129   8.816
   748G11  C0A450776   6.290   4.041   8.708
   748G11  C0A350777   6.249   3.927   8.633
   748G11  C0A250778   6.118   3.882   8.624
   748G11  C0A150779   6.087   3.772   8.542
   748G11  C0A050780   6.139   3.710   8.419
   748G11  C09Z50781   6.078   3.586   8.383
   748G11  C09Y50782   6.118   3.520   8.260
   748G11  H00Y50783   6.080   3.426   8.224
   748G11  C09X50784   6.204   3.588   8.171
   748G11  C09W50785   6.224   3.535   8.043
   748G11  H00R50786   6.167   3.453   8.001
   748G11  C0AX50787   6.299   3.606   7.951
   748G11  H00S50788   6.309   3.562   7.853
   748G11  C0AW50789   6.370   3.724   7.985
   748G11  H00T50790   6.438   3.770   7.915
   748G11  C0AN50791   6.366   3.761   8.121
   748G11  C0AO50792   6.456   3.857   8.172
   748G11  C0AM50793   6.271   3.708   8.208
   748G11  C0B250794   5.961   3.531   8.443
   748G11  O00D50795   5.908   3.425   8.414
   748G11  C0B150796   5.897   3.606   8.543
   748G11  H00W50797   5.800   3.572   8.577
   748G11  C0AL50798   6.251   3.757   8.340
   748G11  C0AK50799   6.340   3.853   8.382
   748G11  C0B050800   5.969   3.720   8.596
   748G11  C0AZ50801   5.925   3.795   8.715
   748G11  H00X50802   5.839   3.773   8.776
   748G11  C0AJ50803   6.339   3.916   8.518
   748G11  C0AH50804   6.421   4.072   8.664
   748G11  C0AE50805   6.319   4.241   8.854
   748G11  C0AD50806   6.283   4.320   8.964
   748G11  C0AY50807   6.028   3.893   8.735
   748G11  C0AB50808   6.095   4.169   8.997
   748G11  C0AC50809   6.169   4.281   9.035
   748G11  C0BM50810   6.321   4.502   9.109
   748G11  C0CM50811   6.248   4.710   9.467
   748G11  C09M50812   6.247   4.850   9.458
   748G11  C09850813   6.137   4.919   9.523
   748G11  C08R50814   6.114   5.058   9.557
   748G11  C08Q50815   5.999   5.087   9.631
   748G11  C08P50816   5.953   5.186   9.732
   748G11  C08Y50817   5.855   5.144   9.825
   748G11  C09750818   5.844   5.004   9.848
   748G11  C09650819   5.843   4.975   9.981
   748G11  C09050820   5.792   5.094  10.044
   748G11  C09550821   5.784   5.113  10.181
   748G11  C09450822   5.738   5.232  10.240
   748G11  C08J50823   5.759   5.368  10.196
   748G11  C08I50824   5.797   5.448  10.305
   748G11  C08H50825   5.873   5.562  10.266
   748G11  C08G50826   5.910   5.529  10.128
   748G11  C08F50827   5.986   5.596  10.023
   748G11  C08E50828   6.011   5.735  10.029
   748G11  C05950829   5.945   5.833  10.112
   748G11  C05850830   5.981   5.972  10.112
   748G11  C05750831   5.940   6.067  10.203
   748G11  C05650832   5.844   6.020  10.296
   748G11  C05550833   5.788   5.904  10.287
   748G11  C05450834   5.720   5.882  10.409
   748G11  C05350835   5.755   5.985  10.496
   748G11  C05250836   5.734   6.002  10.643
   748G11  C05150837   5.670   5.893  10.715
   748G11  C05U50838   5.644   5.757  10.663
   748G11  C05T50839   5.680   5.685  10.544
   748G11  C06K50840   5.586   5.580  10.538
   748G11  H00J50841   5.593   5.517  10.450
   748G11  C06L50842   5.514   5.569  10.656
   748G11  H00I50843   5.462   5.481  10.688
   748G11  C05V50844   5.550   5.682  10.733
   748G11  C06J50845   5.508   5.707  10.865
   748G11  H00K50846   5.438   5.638  10.909
   748G11  C05X50847   5.567   5.814  10.935
   748G11  C06I50848   5.551   5.850  11.073
   748G11  H00L50849   5.489   5.795  11.142
   748G11  C04Z50850   5.623   5.949  11.142
   748G11  C06H50851   5.600   5.975  11.287
   748G11  H00H50852   5.528   5.916  11.342
   748G11  C04Y50853   5.677   6.081  11.351
   748G11  C06G50854   5.650   6.107  11.492
   748G11  O00950855   5.564   6.053  11.562
   748G11  O00850856   5.731   6.207  11.549
   748G11  C04P50857   5.816   6.283  11.476
   748G11  C04J50858   5.922   6.364  11.538
   748G11  C04Q50859   5.944   6.387  11.676
   748G11  H00E50860   5.870   6.355  11.748
   748G11  C04M50861   6.061   6.449  11.721
   748G11  C04R50862   6.088   6.472  11.856
   748G11  H00F50863   6.025   6.431  11.934
   748G11  C04S50864   6.199   6.545  11.888
   748G11  H00G50865   6.210   6.573  11.992
   748G11  O00750866   6.288   6.594  11.800
   748G11  C03V50867   6.262   6.580  11.672
   748G11  C03U50868   6.340   6.651  11.582
   748G11  O00650869   6.449   6.721  11.629
   748G11  C03F50870   6.538   6.769  11.540
   748G11  C03E50871   6.520   6.761  11.402
   748G11  C03D50872   6.405   6.702  11.354
   748G11  C03C50873   6.387   6.699  11.215
   748G11  C03B50874   6.480   6.771  11.137
   748G11  C03A50875   6.460   6.774  10.998
   748G11  C03950876   6.353   6.712  10.936
   748G11  C03850877   6.378   6.739  10.794
   748G11  C03750878   6.484   6.831  10.799
   748G11  C03650879   6.536   6.886  10.681
   748G11  C02R50880   6.640   6.970  10.659
   748G11  C03550881   6.656   6.960  10.520
   748G11  C03R50882   6.562   6.880  10.457
   748G11  C03S50883   6.587   6.809  10.338
   748G11  C04950884   6.507   6.705  10.313
   748G11  C04850885   6.409   6.676  10.405
   748G11  C03P50886   6.404   6.724  10.542
   748G11  C04750887   6.326   6.568  10.369
   748G11  C04650888   6.216   6.519  10.437
   748G11  C04550889   6.171   6.538  10.567
   748G11  C03T50890   6.232   6.602  10.673
   748G11  C04450891   6.161   6.552  10.788
   748G11  C04350892   6.050   6.482  10.744
   748G11  C04250893   6.003   6.396  10.843
   748G11  C04150894   6.068   6.452  10.959
   748G11  C04050895   6.052   6.402  11.092
   748G11  C03Z50896   6.094   6.461  11.214
   748G11  C04H50897   6.013   6.406  11.315
   748G11  C04G50898   5.923   6.319  11.259
   748G11  C03N50899   6.194   6.556  11.253
   748G11  C03Y50900   6.210   6.568  11.396
   748G11  C03X50901   6.119   6.510  11.494
   748G11  C04F50902   5.945   6.314  11.126
   748G11  C04E50903   5.857   6.225  11.057
   748G11  C04O50904   5.773   6.140  11.134
   748G11  C04D50905   5.852   6.208  10.916
   748G11  C04V50906   5.778   6.105  10.859
   748G11  C04W50907   5.704   6.014  10.931
   748G11  C04C50908   5.918   6.282  10.816
   748G11  C04L50909   5.865   6.226  10.689
   748G11  C04U50910   5.896   6.272  10.562
   748G11  C05Q50911   5.886   6.197  10.439
   748G11  C05P50912   5.971   6.252  10.342
   748G11  C04T50913   6.045   6.359  10.394
   748G11  C04B50914   5.992   6.371  10.526
   748G11  C03M50915   6.171   6.551  10.930
   748G11  C04A50916   6.060   6.462  10.611
   748G11  C05H50917   6.156   6.431  10.348
   748G11  C05G50918   6.227   6.422  10.234
   748G11  C05F50919   6.203   6.330  10.126
   748G11  C05E50920   6.303   6.290  10.027
   748G11  C05L50921   6.425   6.341   9.975
   748G11  C05K50922   6.488   6.458  10.024
   748G11  C05J50923   6.457   6.532  10.146
   748G11  C06650924   6.598   6.507   9.948
   748G11  C06550925   6.642   6.438   9.829
   748G11  C06450926   6.575   6.321   9.787
   748G11  C06N50927   6.748   6.488   9.751
   748G11  C06950928   6.824   6.595   9.798
   748G11  C06P50929   6.935   6.635   9.729
   748G11  C06R50930   7.017   6.741   9.778
   748G11  C06B50931   6.985   6.809   9.895
   748G11  C06S50932   7.072   6.905   9.948
   748G11  C02G50933   7.046   6.959  10.073
   748G11  C02F50934   7.133   7.054  10.125
   748G11  C02750935   7.249   7.088  10.058
   748G11  C02650936   7.345   7.168  10.123
   748G11  C00E50937   7.472   7.183  10.065
   748G11  C00D50938   7.574   7.238  10.141
   748G11  C00C50939   7.700   7.249  10.086
   748G11  C00B50940   7.736   7.192   9.965
   748G11  C01550941   7.636   7.130   9.891
   748G11  C07F50942   7.668   7.058   9.781
   748G11  C07E50943   7.571   6.989   9.708
   748G11  C06W50944   7.440   6.977   9.761
   748G11  C06V50945   7.407   7.045   9.879
   748G11  C06X50946   7.350   6.893   9.700
   748G11  C07B50947   7.382   6.827   9.582
   748G11  C07C50948   7.513   6.835   9.531
   748G11  C0FU50949   7.561   6.751   9.427
   748G11  C0F750950   7.691   6.759   9.379
   748G11  C0F650951   7.730   6.684   9.267
   748G11  C0F850952   7.854   6.703   9.218
   748G11  C0F950953   7.898   6.615   9.122
   748G11  C0FA50954   8.029   6.638   9.064
   748G11  C0FZ50955   8.094   6.758   9.094
   748G11  C0G050956   8.212   6.788   9.030
   748G11  C0GD50957   8.278   6.687   8.956
   748G11  C0FC50958   8.215   6.563   8.928
   748G11  C0GH50959   8.278   6.464   8.853
   748G11  C0EY50960   8.212   6.349   8.833
   748G11  C0EX50961   8.273   6.240   8.769
   748G11  C0EW50962   8.192   6.129   8.734
   748G11  C0FR50963   8.253   6.013   8.683
   748G11  H01D50964   8.194   5.922   8.676
   748G11  C0FS50965   8.387   6.011   8.648
   748G11  H01C50966   8.435   5.923   8.607
   748G11  C0GJ50967   8.454   6.130   8.664
   748G11  H01N50968   8.557   6.138   8.635
   748G11  C0EV50969   8.052   6.136   8.751
   748G11  C0FT50970   7.963   6.061   8.666
   748G11  H01E50971   8.007   6.004   8.585
   748G11  C0EU50972   7.997   6.234   8.829
   748G11  C0ET50973   7.862   6.234   8.865
   748G11  C0EI50974   7.796   6.316   8.951
   748G11  C0F150975   7.879   6.415   8.999
   748G11  C0F050976   8.018   6.427   8.954
   748G11  C0EH50977   7.656   6.297   8.978
   748G11  C0EG50978   7.569   6.199   8.918
   748G11  C0EJ50979   7.604   6.390   9.075
   748G11  C0F350980   7.689   6.498   9.120
   748G11  C0EK50981   7.466   6.387   9.108
   748G11  C0EL50982   7.377   6.290   9.053
   748G11  C0EM50983   7.250   6.294   9.124
   748G11  C0EN50984   7.222   6.390   9.215
   748G11  C07I50985   7.095   6.369   9.270
   748G11  C07450986   7.045   6.433   9.385
   748G11  C07350987   6.936   6.391   9.445
   748G11  C07250988   6.893   6.464   9.560
   748G11  C07550989   7.134   6.533   9.428
   748G11  C07650990   7.256   6.557   9.373
   748G11  C07850991   7.343   6.651   9.423
   748G11  C07G50992   7.094   6.607   9.544
   748G11  C07050993   7.176   6.704   9.593
   748G11  C07Z50994   7.044   6.249   9.223
   748G11  C07750995   7.307   6.482   9.267
   748G11  C0EO50996   7.432   6.479   9.216
   748G11  C0F450997   7.519   6.577   9.268
   748G11  C0EQ50998   7.782   6.140   8.802
   748G11  C0FQ50999   8.403   6.243   8.728
   748G11  C0GI51000   8.467   6.366   8.740
   748G11  H01L51001   8.572   6.368   8.719
   748G11  C0EZ51002   8.078   6.334   8.873
   748G11  C0GG51003   8.405   6.480   8.798
   748G11  C0GF51004   8.464   6.601   8.810
   748G11  H01M51005   8.564   6.618   8.772
   748G11  C0GE51006   8.406   6.701   8.894
   748G11  H01K51007   8.462   6.793   8.902
   748G11  O00J51008   8.279   6.905   9.062
   748G11  C0GA51009   8.257   6.966   9.181
   748G11  C0G951010   8.350   7.042   9.244
   748G11  H01H51011   8.440   7.061   9.187
   748G11  C0G851012   8.334   7.079   9.382
   748G11  C0G751013   8.441   7.137   9.460
   748G11  H01I51014   8.536   7.154   9.412
   748G11  O00I51015   8.428   7.170   9.595
   748G11  C0G651016   8.295   7.171   9.639
   748G11  H01J51017   8.280   7.239   9.722
   748G11  C02D51018   8.186   7.111   9.568
   748G11  C02C51019   8.054   7.094   9.625
   748G11  C01751020   8.027   7.135   9.759
   748G11  C01651021   7.896   7.137   9.801
   748G11  O00151022   8.129   7.161   9.843
   748G11  C01851023   8.109   7.207   9.973
   748G11  C00951024   7.978   7.234  10.011
   748G11  C00851025   7.940   7.277  10.145
   748G11  C00751026   8.007   7.307  10.269
   748G11  C00651027   8.146   7.298  10.282
   748G11  C00551028   8.207   7.326  10.408
   748G11  C00451029   8.151   7.338  10.542
   748G11  C00351030   8.012   7.337  10.601
   748G11  C00251031   7.992   7.326  10.740
   748G11  C00P51032   7.865   7.322  10.798
   748G11  C00O51033   7.853   7.294  10.931
   748G11  C00N51034   7.726   7.277  10.986
   748G11  C01051035   7.703   7.255  11.124
   748G11  C01151036   7.574   7.235  11.183
   748G11  C01Q51037   7.559   7.182  11.308
   748G11  C01U51038   7.677   7.152  11.385
   748G11  C01251039   7.804   7.177  11.325
   748G11  H00051040   7.897   7.158  11.378
   748G11  C01V51041   7.645   7.096  11.513
   748G11  H00751042   7.728   7.062  11.574
   748G11  O00551043   7.524   7.075  11.573
   748G11  C01W51044   7.422   7.132  11.502
   748G11  C03151045   7.292   7.146  11.566
   748G11  C03251046   7.184   7.202  11.497
   748G11  H00A51047   7.085   7.199  11.540
   748G11  C03351048   7.196   7.230  11.362
   748G11  H00B51049   7.108   7.263  11.308
   748G11  C01O51050   7.323   7.216  11.295
   748G11  C01N51051   7.338   7.238  11.156
   748G11  C01M51052   7.221   7.242  11.065
   748G11  C01L51053   7.088   7.183  11.060
   748G11  C01K51054   7.037   7.222  10.931
   748G11  C01Y51055   6.936   7.145  10.870
   748G11  C02I51056   6.857   7.058  10.947
   748G11  C02N51057   6.746   7.001  10.884
   748G11  C02M51058   6.656   6.932  10.966
   748G11  C02L51059   6.677   6.917  11.106
   748G11  C02K51060   6.799   6.959  11.160
   748G11  C02U51061   6.833   6.928  11.292
   748G11  C02V51062   6.735   6.877  11.377
   748G11  C03H51063   6.751   6.860  11.514
   748G11  H00C51064   6.836   6.895  11.571
   748G11  C02W51065   6.969   6.921  11.329
   748G11  C02X51066   7.058   6.986  11.238
   748G11  C02Y51067   7.180   6.949  11.291
   748G11  H00851068   7.280   6.970  11.255
   748G11  C02Z51069   7.156   6.861  11.414
   748G11  O00451070   7.234   6.812  11.502
   748G11  O00351071   7.022   6.861  11.434
   748G11  C02J51072   6.888   7.040  11.083
   748G11  C01Z51073   6.943   7.148  10.728
   748G11  C02051074   7.052   7.205  10.655
   748G11  C01I51075   7.155   7.264  10.722
   748G11  C01H51076   7.276   7.292  10.662
   748G11  C00K51077   7.388   7.310  10.741
   748G11  C01S51078   7.380   7.297  10.879
   748G11  C01451079   7.486   7.284  10.964
   748G11  C00J51080   7.517   7.314  10.685
   748G11  C00I51081   7.529   7.299  10.548
   748G11  C00H51082   7.413   7.279  10.471
   748G11  C00G51083   7.431   7.250  10.331
   748G11  C00S51084   7.654   7.308  10.497
   748G11  C00T51085   7.660   7.301  10.359
   748G11  C00U51086   7.788   7.314  10.306
   748G11  C00R51087   7.770   7.324  10.576
   748G11  C00L51088   7.627   7.314  10.770
   748G11  C02851089   7.289   7.270  10.529
   748G11  C02351090   7.185   7.207  10.455
   748G11  C02451091   7.205   7.176  10.319
   748G11  C02151092   7.066   7.182  10.520
   748G11  C02251093   6.965   7.115  10.450
   748G11  C02H51094   6.988   7.070  10.319
   748G11  C03051095   6.900   6.978  10.262
   748G11  C03451096   6.786   6.940  10.326
   748G11  C02P51097   6.853   7.072  10.521
   748G11  C02B51098   6.840   7.087  10.661
   748G11  C01J51099   7.143   7.279  10.857
   748G11  C01X51100   7.018   7.075  11.133
   748G11  C01T51101   7.251   7.294  10.938
   748G11  H00951102   7.265   7.111  11.664
   748G11  C01P51103   7.434   7.176  11.368
   748G11  C01R51104   7.464   7.253  11.099
   748G11  C00Z51105   7.817   7.229  11.198
   748G11  O00051106   7.942   7.250  11.147
   748G11  C00M51107   7.612   7.287  10.905
   748G11  C00Y51108   7.957   7.290  11.017
   748G11  C01351109   8.085   7.319  10.971
   748G11  H00151110   8.163   7.328  11.046
   748G11  C00Q51111   7.750   7.324  10.716
   748G11  C00151112   8.107   7.335  10.831
   748G11  C00051113   8.238   7.362  10.778
   748G11  H00651114   8.324   7.379  10.840
   748G11  C00W51115   7.898   7.328  10.518
   748G11  C01G51116   8.252   7.356  10.639
   748G11  H00551117   8.357   7.350  10.614
   748G11  C01C51118   8.353   7.329  10.377
   748G11  H00251119   8.439   7.336  10.441
   748G11  C01B51120   8.366   7.298  10.239
   748G11  C01D51121   8.484   7.292  10.157
   748G11  H00351122   8.583   7.300  10.200
   748G11  C01E51123   8.468   7.283  10.026
   748G11  H00451124   8.559   7.284   9.969
   748G11  O00251125   8.344   7.255   9.964
   748G11  C01A51126   8.238   7.283  10.179
   748G11  C00V51127   7.909   7.322  10.374
   748G11  C01951128   8.231   7.244  10.042
   748G11  C02E51129   7.956   7.018   9.556
   748G11  C0FX51130   7.981   6.969   9.433
   748G11  C0FW51131   7.893   6.881   9.374
   748G11  C0GB51132   8.108   6.987   9.378
   748G11  C0G351133   7.832   7.001   9.614
   748G11  C07H51134   7.742   6.923   9.545
   748G11  C0GC51135   8.211   7.056   9.443
   748G11  C0G251136   8.138   6.938   9.250
   748G11  C0G151137   8.057   6.839   9.199
   748G11  C0FB51138   8.090   6.542   8.984
   748G11  C0F251139   7.821   6.510   9.080
   748G11  C0FY51140   7.934   6.805   9.264
   748G11  C0F551141   7.642   6.585   9.214
   748G11  C0FV51142   7.775   6.852   9.433
   748G11  C07951143   7.478   6.659   9.371
   748G11  C07A51144   7.302   6.727   9.534
   748G11  C06Y51145   7.226   6.872   9.760
   748G11  C07D51146   7.613   6.914   9.598
   748G11  C01F51147   7.795   7.065   9.732
   748G11  C00A51148   7.872   7.192   9.925
   748G11  C00X51149   7.806   7.296  10.169
   748G11  C00F51150   7.554   7.268  10.273
   748G11  C02951151   7.504   7.121   9.944
   748G11  C02551152   7.325   7.207  10.254
   748G11  C06U51153   7.278   7.026   9.934
   748G11  C02A51154   7.106   7.100  10.254
   748G11  C05Y51155   6.930   6.918  10.139
   748G11  C05Z51156   6.844   6.816  10.092
   748G11  C06051157   6.735   6.777  10.161
   748G11  C06251158   6.649   6.671  10.119
   748G11  C06T51159   7.193   6.936   9.880
   748G11  C06A51160   6.869   6.760   9.966
   748G11  C06Z51161   7.140   6.772   9.710
   748G11  C06Q51162   6.972   6.574   9.609
   748G11  C06851163   6.784   6.657   9.919
   748G11  C06751164   6.676   6.613   9.996
   748G11  C06351165   6.465   6.272   9.854
   748G11  C06C51166   6.412   6.147   9.816
   748G11  C06D51167   6.308   6.089   9.883
   748G11  C06E51168   6.250   5.967   9.863
   748G11  C07Q51169   6.305   5.891   9.766
   748G11  C07P51170   6.404   5.947   9.687
   748G11  C07T51171   6.450   5.874   9.587
   748G11  C07U51172   6.558   5.920   9.505
   748G11  C07V51173   6.608   5.847   9.399
   748G11  C08451174   6.561   5.717   9.389
   748G11  C08C51175   6.467   5.663   9.475
   748G11  C08B51176   6.428   5.533   9.463
   748G11  C08A51177   6.335   5.483   9.549
   748G11  C08951178   6.264   5.555   9.642
   748G11  C08851179   6.165   5.495   9.720
   748G11  C08751180   6.115   5.573   9.824
   748G11  C08651181   6.159   5.707   9.840
   748G11  C08X51182   6.124   5.364   9.701
   748G11  C08T51183   6.204   5.282   9.603
   748G11  C08D51184   6.310   5.684   9.655
   748G11  C08U51185   6.294   5.352   9.531
   748G11  C08V51186   6.358   5.273   9.441
   748G11  C0CY51187   6.451   5.320   9.352
   748G11  C0CX51188   6.504   5.233   9.266
   748G11  C0CW51189   6.592   5.282   9.173
   748G11  C0CV51190   6.631   5.417   9.183
   748G11  C0D451191   6.582   5.502   9.287
   748G11  C0CU51192   6.728   5.463   9.098
   748G11  C0CT51193   6.784   5.384   9.000
   748G11  C0CS51194   6.738   5.255   8.988
   748G11  C0D651195   6.761   5.593   9.117
   748G11  C0EC51196   6.708   5.678   9.212
   748G11  C07X51197   6.755   5.813   9.218
   748G11  C0DL51198   6.853   5.639   9.028
   748G11  C0DK51199   6.899   5.771   9.045
   748G11  C0DN51200   7.000   5.789   8.955
   748G11  C0D851201   6.919   5.565   8.928
   748G11  C08W51202   6.320   5.142   9.455
   748G11  C0CQ51203   6.378   5.046   9.358
   748G11  C09351204   6.488   5.451   9.367
   748G11  C09251205   6.615   5.636   9.294
   748G11  C08551206   6.405   5.743   9.571
   748G11  C07S51207   6.258   5.761   9.753
   748G11  C06F51208   6.145   5.919   9.935
   748G11  C07O51209   6.459   6.074   9.710
   748G11  C07N51210   6.565   6.123   9.639
   748G11  C05D51211   6.256   6.168   9.981
   748G11  C05C51212   6.140   6.130  10.048
   748G11  C05N51213   6.104   6.228  10.136
   748G11  C05M51214   6.344   6.502  10.235
   748G11  C05I51215   6.534   6.639  10.191
   748G11  C06151216   6.707   6.839  10.277
   748G11  C02Q51217   6.767   6.996  10.449
   748G11  C02O51218   6.743   7.028  10.742
   748G11  C03Q51219   6.493   6.828  10.560
   748G11  C03O51220   6.340   6.680  10.669
   748G11  C03L51221   6.268   6.625  11.012
   748G11  C02S51222   6.542   6.857  10.921
   748G11  C02T51223   6.592   6.839  11.188
   748G11  C03K51224   6.280   6.627  11.159
   748G11  C03I51225   6.617   6.823  11.320
   748G11  C03G51226   6.658   6.809  11.598
   748G11  H00D51227   6.682   6.794  11.702
   748G11  C03J51228   6.316   6.639  11.443
   748G11  C03W51229   6.142   6.514  11.629
   748G11  C04I51230   6.017   6.426  11.453
   748G11  C04K51231   5.834   6.257  11.339
   748G11  C04N51232   5.765   6.157  11.272
   748G11  C04X51233   5.704   6.033  11.067
   748G11  C05051234   5.648   5.907  10.858
   748G11  C05W51235   5.791   6.109  10.717
   748G11  C05S51236   5.742   5.742  10.428
   748G11  C05R51237   5.824   6.079  10.417
   748G11  C05O51238   5.996   6.194  10.221
   748G11  C05B51239   6.078   6.007  10.024
   748G11  C05A51240   5.852   5.801  10.220
   748G11  C07R51241   6.105   5.787   9.939
   748G11  C08N51242   6.025   5.515   9.912
   748G11  C08M51243   5.974   5.384   9.888
   748G11  C08L51244   5.880   5.328   9.979
   748G11  C09151245   5.824   5.691  10.310
   748G11  C09K51246   5.799   5.356  10.423
   748G11  H00M51247   5.858   5.374  10.512
   748G11  C08K51248   5.849   5.403  10.091
   748G11  C09J51249   5.742   5.230  10.377
   748G11  C09I51250   5.774   5.096  10.403
   748G11  C09L51251   5.792   5.034  10.529
   748G11  H00N51252   5.791   5.094  10.619
   748G11  C09Q51253   5.826   4.908  10.520
   748G11  H00O51254   5.836   4.861  10.617
   748G11  O00B51255   5.835   4.827  10.405
   748G11  C09G51256   5.832   4.885  10.280
   748G11  C09F51257   5.880   4.799  10.175
   748G11  O00A51258   5.931   4.681  10.222
   748G11  C09P51259   6.000   4.609  10.134
   748G11  H00P51260   6.076   4.546  10.177
   748G11  C09O51261   6.004   4.638   9.993
   748G11  C09D51262   5.958   4.758   9.943
   748G11  C09C51263   5.967   4.809   9.807
   748G11  C09N51264   6.044   4.770   9.691
   748G11  C09T51265   6.141   4.666   9.695
   748G11  C09S51266   6.129   4.556   9.783
   748G11  C0CP51267   6.188   4.450   9.711
   748G11  C0CN51268   6.238   4.481   9.586
   748G11  C0CO51269   6.306   4.385   9.507
   748G11  H01451270   6.344   4.397   9.407
   748G11  C0CZ51271   6.321   4.254   9.569
   748G11  H01551272   6.368   4.180   9.506
   748G11  C0D051273   6.268   4.224   9.699
   748G11  C0G551274   6.282   4.102   9.764
   748G11  H01F51275   6.338   4.022   9.718
   748G11  C0G451276   6.234   4.090   9.886
   748G11  H01G51277   6.260   3.993   9.924
   748G11  O00H51278   6.165   4.184   9.960
   748G11  C0D251279   6.143   4.302   9.895
   748G11  C09V51280   6.085   4.413   9.968
   748G11  H00Q51281   6.049   4.374  10.062
   748G11  C0D151282   6.195   4.321   9.766
   748G11  C09R51283   6.070   4.543   9.913
   748G11  C09H51284   5.800   5.020  10.281
   748G11  C09E51285   5.885   4.842  10.036
   748G11  C09B51286   5.901   4.922   9.757
   748G11  C08Z51287   5.838   5.195   9.953
   748G11  C08O51288   6.017   5.305   9.773
   748G11  C09A51289   5.934   4.961   9.623
   748G11  C08S51290   6.222   5.145   9.557
   748G11  C09951291   6.023   4.858   9.579
   748G11  C09U51292   6.213   4.628   9.576
   748G11  C0BO51293   6.391   4.618   9.140
   748G11  C0CL51294   6.336   4.910   9.365
   748G11  C0D351295   6.467   5.098   9.267
   748G11  C0D551296   6.642   5.203   9.076
   748G11  C0BR51297   6.539   4.798   9.071
   748G11  C0BQ51298   6.490   4.668   9.057
   748G11  C0BL51299   6.360   4.425   9.003
   748G11  C0AF51300   6.439   4.271   8.788
   748G11  C0BH51301   6.658   4.563   8.746
   748G11  C0BG51302   6.723   4.618   8.641
   748G11  C0BD51303   6.711   4.417   8.508
   748G11  C0AG51304   6.487   4.189   8.690
   748G11  C0AI51305   6.446   3.996   8.554
   748G11  C0AV51306   6.451   3.891   8.304
   748G11  C0BB51307   6.744   4.120   8.301
   748G11  O00C51308   6.543   3.918   8.077
   748G11  C0BC51309   6.802   4.163   8.185
   748G11  C0B951310   6.749   4.338   8.396
   748G11  O00E51311   6.892   4.601   8.184
   748G11  C0CA51312   6.917   4.733   8.181
   748G11  O00F51313   6.949   4.784   8.073
   748G11  C0BF51314   6.753   4.549   8.521
   748G11  C0C551315   6.904   4.800   8.307
   748G11  C0C451316   6.944   4.937   8.312
   748G11  H01151317   6.998   4.985   8.232
   748G11  C0C851318   6.765   4.753   8.647
   748G11  C0C251319   6.914   5.005   8.433
   748G11  C0C351320   6.957   5.142   8.454
   748G11  C0DY51321   7.041   5.221   8.369
   748G11  H01651322   7.079   5.199   8.271
   748G11  C0DX51323   7.090   5.325   8.456
   748G11  C0DW51324   7.226   5.365   8.441
   748G11  C0BY51325   6.780   4.956   8.768
   748G11  C0DB51326   6.951   5.203   8.576
   748G11  C0CC51327   6.789   5.177   8.886
   748G11  C0D751328   6.878   5.430   8.910
   748G11  C0DZ51329   7.021   5.322   8.581
   748G11  C0DM51330   7.015   5.663   8.886
   748G11  C0DQ51331   7.230   5.550   8.620
   748G11  C0DV51332   7.284   5.471   8.516
   748G11  C0E051333   7.323   5.332   8.336
   748G11  C0FO51334   7.570   5.559   8.209
   748G11  C0E351335   7.315   5.327   8.190
   748G11  H01751336   7.224   5.312   8.132
   748G11  C0GV51337   7.554   5.573   8.072
   748G11  C0ES51338   7.593   5.676   8.290
   748G11  C0GQ51339   7.701   5.889   8.008
   748G11  C0FJ51340   7.819   6.107   8.287
   748G11  C0ED51341   7.663   5.917   8.427
   748G11  C0ER51342   7.830   6.066   8.698
   748G11  C0EP51343   7.646   6.126   8.819
   748G11  C0E651344   7.496   5.831   8.618
   748G11  C0DE51345   7.259   5.874   8.817
   748G11  C0EA51346   7.434   6.191   8.952
   748G11  C0DF51347   7.159   5.955   8.869
   748G11  C08051348   7.135   6.209   9.120
   748G11  C0DO51349   7.059   5.909   8.955
   748G11  C0DJ51350   6.856   5.863   9.142
   748G11  C07K51351   6.917   6.202   9.288
   748G11  C07W51352   6.711   5.900   9.316
   748G11  C08351353   6.611   6.049   9.529
   748G11  C07J51354   6.869   6.279   9.402
   748G11  C06O51355   6.784   6.420   9.631
   748G11  C06M51356   6.626   6.247   9.672
   758G11  C07151357   8.076   0.806   9.110
   758G11  C07L51358   7.959   0.845   9.183
   758G11  C07M51359   7.936   0.980   9.213
   758G11  C07Y51360   7.822   1.020   9.290
   758G11  C08151361   7.735   0.927   9.342
   758G11  C08251362   7.623   0.976   9.419
   758G11  C0DI51363   7.511   0.902   9.483
   758G11  C0DH51364   7.468   0.764   9.483
   758G11  C0DG51365   7.357   0.745   9.572
   758G11  C0E951366   7.245   0.655   9.566
   758G11  C0E851367   7.131   0.734   9.628
   758G11  C0E751368   7.005   0.690   9.689
   758G11  C0EB51369   6.989   0.551   9.718
   758G11  C0EF51370   6.900   0.484   9.815
   758G11  C0EE51371   6.817   0.530   9.921
   758G11  C0FD51372   6.806   0.450  10.044
   758G11  C0FE51373   6.900   0.355  10.094
   758G11  H01B51374   6.982   0.339  10.025
   758G11  C0FF51375   6.891   0.282  10.206
   758G11  H01A51376   6.971   0.218  10.239
   758G11  C0FG51377   6.771   0.298  10.271
   758G11  H01851378   6.757   0.242  10.362
   758G11  C0FH51379   6.669   0.387  10.230
   758G11  C0FI51380   6.541   0.401  10.294
   758G11  H01951381   6.521   0.352  10.389
   758G11  O00K51382   6.434   0.474  10.247
   758G11  C0FL51383   6.467   0.574  10.159
   758G11  C0FK51384   6.592   0.568  10.084
   758G11  C0FM51385   6.622   0.659   9.982
   758G11  C0FN51386   6.524   0.761   9.957
   758G11  C0FP51387   6.406   0.771  10.032
   758G11  C0GO51388   6.327   0.880  10.032
   758G11  C0GN51389   6.223   0.911  10.122
   758G11  C0GR51390   6.181   0.795  10.193
   758G11  C0GS51391   6.063   0.799  10.262
   758G11  H01Q51392   6.032   0.701  10.295
   758G11  C0GT51393   5.989   0.914  10.259
   758G11  H01O51394   5.886   0.904  10.291
   758G11  C0GU51395   6.037   1.036  10.212
   758G11  H01P51396   5.976   1.122  10.234
   758G11  O00L51397   6.255   0.682  10.197
   758G11  C0GM51398   6.159   1.036  10.135
   758G11  C0GL51399   6.229   1.144  10.067
   758G11  H01R51400   6.197   1.247  10.066
   758G11  C0GK51401   6.328   1.114   9.975
   758G11  C0GP51402   6.410   1.193   9.887
   758G11  C0E251403   6.468   1.100   9.794
   758G11  C0E151404   6.583   1.156   9.734
   758G11  C0DU51405   6.712   1.096   9.723
   758G11  C0DT51406   6.752   0.966   9.746
   758G11  C0E451407   6.682   0.860   9.803
   758G11  C0E551408   6.767   0.750   9.810
   758G11  C0DS51409   6.883   0.923   9.720
   758G11  C0DR51410   6.975   1.026   9.687
   758G11  C0DD51411   7.108   1.012   9.658
   758G11  C0DC51412   7.152   1.154   9.635
   758G11  C0DP51413   7.050   1.254   9.657
   758G11  C0DA51414   7.054   1.403   9.647
   758G11  C0D951415   7.151   1.496   9.578
   758G11  C0CR51416   7.122   1.641   9.567
   758G11  C0C051417   7.002   1.695   9.612
   758G11  C0BZ51418   6.966   1.831   9.604
   758G11  C0C151419   6.838   1.870   9.650
   758G11  C0C751420   6.806   2.003   9.638
   758G11  C0C651421   6.682   2.050   9.679
   758G11  C0C951422   6.650   2.184   9.666
   758G11  C0B851423   6.520   2.228   9.697
   758G11  C0B751424   6.488   2.369   9.708
   758G11  C0B651425   6.369   2.444   9.741
   758G11  C0B551426   6.234   2.410   9.699
   758G11  H00Z51427   6.210   2.315   9.653
   758G11  C0B451428   6.160   2.530   9.711
   758G11  H01051429   6.065   2.550   9.665
   758G11  C0B351430   6.237   2.635   9.762
   758G11  C0AP51431   6.279   2.772   9.714
   758G11  C0AQ51432   6.419   2.775   9.712
   758G11  C0AR51433   6.491   2.852   9.619
   758G11  C0AS51434   6.617   2.809   9.590
   758G11  C0AT51435   6.664   2.685   9.622
   758G11  C0BA51436   6.587   2.595   9.695
   758G11  C0AU51437   6.763   2.632   9.545
   758G11  C0BE51438   6.802   2.493   9.565
   758G11  C0BI51439   6.910   2.443   9.494
   758G11  C0BJ51440   6.978   2.525   9.400
   758G11  C0BK51441   7.089   2.479   9.337
   758G11  C0BW51442   7.135   2.350   9.363
   758G11  C0BV51443   7.057   2.260   9.439
   758G11  C0BU51444   7.107   2.131   9.459
   758G11  C0BX51445   7.025   2.044   9.529
   758G11  C0BT51446   7.224   2.087   9.403
   758G11  C0CD51447   7.260   1.953   9.415
   758G11  C0CB51448   7.177   1.865   9.486
   758G11  C0CE51449   7.383   1.913   9.372
   758G11  C0CK51450   7.465   2.006   9.307
   758G11  C0BS51451   7.429   2.140   9.287
   758G11  C0CJ51452   7.513   2.229   9.219
   758G11  C0BP51453   7.458   2.359   9.189
   758G11  C0CI51454   7.538   2.451   9.116
   758G11  C0CH51455   7.472   2.567   9.072
   758G11  H01251456   7.528   2.624   9.000
   758G11  C0BN51457   7.341   2.602   9.110
   758G11  C0CG51458   7.281   2.714   9.056
   758G11  C0CF51459   7.337   2.789   8.950
   758G11  H01351460   7.427   2.754   8.902
   758G11  O00G51461   7.276   2.898   8.899
   758G11  C0AA51462   7.166   2.953   8.965
   758G11  C0A951463   7.116   3.075   8.927
   758G11  H00U51464   7.173   3.133   8.855
   758G11  C0A851465   7.000   3.129   8.985
   758G11  H00V51466   6.988   3.236   8.975
   758G11  C0A751467   6.918   3.050   9.071
   758G11  C0A651468   6.978   2.925   9.120
   758G11  C0A551469   6.924   2.851   9.228
   758G11  C0A451470   6.821   2.902   9.312
   758G11  C0A351471   6.724   3.011   9.311
   758G11  C0A251472   6.698   3.095   9.207
   758G11  C0A151473   6.593   3.197   9.212
   758G11  C0A051474   6.469   3.222   9.285
   758G11  C09Z51475   6.393   3.335   9.243
   758G11  C09Y51476   6.278   3.379   9.317
   758G11  H00Y51477   6.216   3.463   9.287
   758G11  C09X51478   6.231   3.290   9.417
   758G11  C09W51479   6.107   3.332   9.473
   758G11  H00R51480   6.065   3.429   9.454
   758G11  C0AX51481   6.038   3.247   9.554
   758G11  H00S51482   5.947   3.276   9.604
   758G11  C0AW51483   6.096   3.121   9.581
   758G11  H00T51484   6.040   3.054   9.645
   758G11  C0AN51485   6.222   3.080   9.532
   758G11  C0AO51486   6.284   2.961   9.573
   758G11  C0AM51487   6.291   3.171   9.446
   758G11  C0B251488   6.412   3.414   9.128
   758G11  O00D51489   6.340   3.501   9.081
   758G11  C0B151490   6.534   3.385   9.060
   758G11  H00W51491   6.559   3.440   8.970
   758G11  C0AL51492   6.420   3.138   9.394
   758G11  C0AK51493   6.488   3.034   9.453
   758G11  C0B051494   6.624   3.284   9.104
   758G11  C0AZ51495   6.747   3.249   9.044
   758G11  H00X51496   6.803   3.297   8.965
   758G11  C0AJ51497   6.622   2.992   9.413
   758G11  C0AH51498   6.788   2.827   9.424
   758G11  C0AE51499   6.981   2.730   9.269
   758G11  C0AD51500   7.098   2.682   9.211
   758G11  C0AY51501   6.798   3.125   9.109
   758G11  C0AB51502   7.097   2.874   9.063
   758G11  C0AC51503   7.156   2.755   9.109
   758G11  C0BM51504   7.275   2.519   9.195
   758G11  C0CM51505   7.678   2.423   9.107
   758G11  C09M51506   7.720   2.285   9.104
   758G11  C09851507   7.819   2.258   9.009
   758G11  C08R51508   7.904   2.142   8.984
   758G11  C08Q51509   7.992   2.149   8.877
   758G11  C08P51510   8.116   2.090   8.829
   758G11  C08Y51511   8.187   2.175   8.735
   758G11  C09751512   8.156   2.309   8.715
   758G11  C09651513   8.274   2.388   8.722
   758G11  C09051514   8.380   2.292   8.699
   758G11  C09551515   8.516   2.320   8.703
   758G11  C09451516   8.621   2.230   8.662
   758G11  C08J51517   8.609   2.087   8.632
   758G11  C08I51518   8.741   2.038   8.665
   758G11  C08H51519   8.722   1.899   8.701
   758G11  C08G51520   8.586   1.883   8.747
   758G11  C08F51521   8.504   1.782   8.816
   758G11  C08E51522   8.554   1.656   8.841
   758G11  C05951523   8.686   1.603   8.812
   758G11  C05851524   8.719   1.471   8.829
   758G11  C05751525   8.827   1.401   8.779
   758G11  C05651526   8.929   1.484   8.728
   758G11  C05551527   8.932   1.618   8.749
   758G11  C05451528   9.019   1.671   8.648
   758G11  C05351529   9.082   1.562   8.573
   758G11  C05251530   9.176   1.568   8.463
   758G11  C05151531   9.207   1.698   8.404
   758G11  C05U51532   9.140   1.829   8.426
   758G11  C05T51533   9.024   1.873   8.502
   758G11  C06K51534   9.027   2.016   8.496
   758G11  H00J51535   8.957   2.073   8.556
   758G11  C06L51536   9.133   2.061   8.415
   758G11  H00I51537   9.164   2.163   8.401
   758G11  C05V51538   9.204   1.946   8.373
   758G11  C06J51539   9.316   1.939   8.298
   758G11  H00K51540   9.370   2.028   8.269
   758G11  C05X51541   9.358   1.814   8.251
   758G11  C06I51542   9.466   1.796   8.155
   758G11  H00L51543   9.514   1.884   8.114
   758G11  C04Z51544   9.498   1.669   8.083
   758G11  C06H51545   9.581   1.666   7.964
   758G11  H00H51546   9.614   1.762   7.927
   758G11  C04Y51547   9.592   1.543   7.891
   758G11  C06G51548   9.661   1.546   7.765
   758G11  O00951549   9.709   1.646   7.708
   758G11  O00851550   9.678   1.417   7.706
   758G11  C04P51551   9.619   1.302   7.753
   758G11  C04J51552   9.615   1.180   7.680
   758G11  C04Q51553   9.683   1.144   7.565
   758G11  H00E51554   9.750   1.217   7.524
   758G11  C04M51555   9.637   1.035   7.486
   758G11  C04R51556   9.677   1.017   7.352
   758G11  H00F51557   9.742   1.090   7.305
   758G11  C04S51558   9.629   0.914   7.280
   758G11  H00G51559   9.665   0.897   7.180
   758G11  O00751560   9.550   0.820   7.334
   758G11  C03V51561   9.505   0.837   7.464
   758G11  C03U51562   9.401   0.757   7.511
   758G11  O00651563   9.352   0.664   7.426
   758G11  C03F51564   9.248   0.590   7.468
   758G11  C03E51565   9.216   0.578   7.604
   758G11  C03D51566   9.267   0.669   7.696
   758G11  C03C51567   9.227   0.669   7.827
   758G11  C03B51568   9.144   0.559   7.860
   758G11  C03A51569   9.094   0.560   7.992
   758G11  C03951570   9.121   0.665   8.080
   758G11  C03851571   9.026   0.632   8.187
   758G11  C03751572   8.979   0.497   8.164
   758G11  C03651573   8.906   0.430   8.247
   758G11  C02R51574   8.838   0.309   8.231
   758G11  C03551575   8.757   0.305   8.344
   758G11  C03R51576   8.765   0.417   8.415
   758G11  C03S51577   8.670   0.460   8.511
   758G11  C04951578   8.685   0.584   8.566
   758G11  C04851579   8.788   0.662   8.506
   758G11  C03P51580   8.876   0.628   8.396
   758G11  C04751581   8.800   0.788   8.565
   758G11  C04651582   8.902   0.887   8.545
   758G11  C04551583   9.004   0.897   8.452
   758G11  C03T51584   9.037   0.816   8.345
   758G11  C04451585   9.146   0.879   8.279
   758G11  C04351586   9.187   0.990   8.351
   758G11  C04251587   9.244   1.090   8.269
   758G11  C04151588   9.267   1.016   8.147
   758G11  C04051589   9.359   1.058   8.048
   758G11  C03Z51590   9.398   0.988   7.929
   758G11  C04H51591   9.483   1.081   7.864
   758G11  C04G51592   9.495   1.199   7.930
   758G11  C03N51593   9.356   0.866   7.862
   758G11  C03Y51594   9.412   0.860   7.732
   758G11  C03X51595   9.499   0.956   7.671
   758G11  C04F51596   9.412   1.195   8.042
   758G11  C04E51597   9.409   1.311   8.125
   758G11  C04O51598   9.464   1.429   8.068
   758G11  C04D51599   9.343   1.324   8.248
   758G11  C04V51600   9.312   1.454   8.292
   758G11  C04W51601   9.351   1.575   8.239
   758G11  C04C51602   9.273   1.226   8.319
   758G11  C04L51603   9.209   1.302   8.427
   758G11  C04U51604   9.123   1.245   8.530
   758G11  C05Q51605   9.044   1.317   8.621
   758G11  C05P51606   8.948   1.226   8.679
   758G11  C04T51607   8.966   1.099   8.627
   758G11  C04B51608   9.066   1.114   8.534
   758G11  C03M51609   9.210   0.882   8.144
   758G11  C04A51610   9.090   1.006   8.449
   758G11  C05H51611   8.885   0.989   8.639
   758G11  C05G51612   8.763   0.959   8.710
   758G11  C05F51613   8.712   1.043   8.807
   758G11  C05E51614   8.575   1.026   8.861
   758G11  C05L51615   8.471   0.920   8.866
   758G11  C05K51616   8.491   0.792   8.806
   758G11  C05J51617   8.600   0.753   8.720
   758G11  C06651618   8.389   0.703   8.843
   758G11  C06551619   8.292   0.733   8.938
   758G11  C06451620   8.274   0.860   8.986
   758G11  C06N51621   8.197   0.641   8.974
   758G11  C06951622   8.207   0.510   8.922
   758G11  C06P51623   8.101   0.420   8.959
   758G11  C06R51624   8.096   0.297   8.898
   758G11  C06B51625   8.189   0.263   8.798
   758G11  C06S51626   8.174   0.147   8.720
   758G11  C02G51627   8.263   0.121   8.613
   758G11  C02F51628   8.242   0.010   8.529
   758G11  C02751629   8.132  -0.067   8.543
   758G11  C02651630   8.105  -0.168   8.454
   758G11  C00E51631   7.987  -0.238   8.457
   758G11  C00D51632   7.950  -0.315   8.353
   758G11  C00C51633   7.830  -0.385   8.364
   758G11  C00B51634   7.733  -0.366   8.461
   758G11  C01551635   7.768  -0.273   8.558
   758G11  C07F51636   7.677  -0.247   8.659
   758G11  C07E51637   7.704  -0.149   8.757
   758G11  C06W51638   7.827  -0.077   8.754
   758G11  C06V51639   7.922  -0.111   8.657
   758G11  C06X51640   7.851   0.027   8.843
   758G11  C07B51641   7.758   0.054   8.942
   758G11  C07C51642   7.635  -0.013   8.944
   758G11  C0FU51643   7.536   0.025   9.034
   758G11  C0F751644   7.427  -0.056   9.049
   758G11  C0F651645   7.330  -0.021   9.146
   758G11  C0F851646   7.221  -0.104   9.163
   758G11  C0F951647   7.128  -0.071   9.261
   758G11  C0FA51648   7.021  -0.162   9.285
   758G11  C0FZ51649   6.998  -0.272   9.201
   758G11  C0G051650   6.893  -0.363   9.222
   758G11  C0GD51651   6.807  -0.343   9.336
   758G11  C0FC51652   6.820  -0.227   9.412
   758G11  C0GH51653   6.732  -0.202   9.521
   758G11  C0EY51654   6.750  -0.094   9.605
   758G11  C0EX51655   6.667  -0.071   9.711
   758G11  C0EW51656   6.680   0.040   9.790
   758G11  C0FR51657   6.604   0.060   9.906
   758G11  H01D51658   6.620   0.137   9.980
   758G11  C0FS51659   6.503  -0.025   9.945
   758G11  H01C51660   6.457  -0.012  10.042
   758G11  C0GJ51661   6.485  -0.137   9.861
   758G11  H01N51662   6.408  -0.207   9.890
   758G11  C0EV51663   6.777   0.135   9.757
   758G11  C0FT51664   6.780   0.260   9.818
   758G11  H01E51665   6.707   0.294   9.890
   758G11  C0EU51666   6.874   0.108   9.658
   758G11  C0ET51667   6.962   0.205   9.611
   758G11  C0EI51668   7.053   0.192   9.505
   758G11  C0F151669   7.052   0.066   9.442
   758G11  C0F051670   6.948  -0.027   9.472
   758G11  C0EH51671   7.145   0.293   9.475
   758G11  C0EG51672   7.147   0.427   9.538
   758G11  C0EJ51673   7.253   0.261   9.389
   758G11  C0F351674   7.245   0.133   9.317
   758G11  C0EK51675   7.363   0.345   9.371
   758G11  C0EL51676   7.367   0.476   9.427
   758G11  C0EM51677   7.492   0.536   9.397
   758G11  C0EN51678   7.597   0.466   9.334
   758G11  C07I51679   7.701   0.555   9.315
   758G11  C07451680   7.804   0.526   9.220
   758G11  C07351681   7.896   0.622   9.196
   758G11  C07251682   7.995   0.585   9.106
   758G11  C07551683   7.795   0.403   9.156
   758G11  C07651684   7.682   0.322   9.172
   758G11  C07851685   7.671   0.207   9.100
   758G11  C07G51686   7.898   0.368   9.069
   758G11  C07051687   7.890   0.244   9.009
   758G11  C07Z51688   7.670   0.686   9.356
   758G11  C07751689   7.576   0.358   9.256
   758G11  C0EO51690   7.465   0.291   9.282
   758G11  C0F451691   7.452   0.175   9.206
   758G11  C0EQ51692   6.966   0.326   9.675
   758G11  C0FQ51693   6.565  -0.160   9.742
   758G11  C0GI51694   6.543  -0.266   9.651
   758G11  H01L51695   6.469  -0.339   9.682
   758G11  C0EZ51696   6.860  -0.009   9.580
   758G11  C0GG51697   6.631  -0.300   9.552
   758G11  C0GF51698   6.623  -0.415   9.478
   758G11  H01M51699   6.557  -0.495   9.508
   758G11  C0GE51700   6.711  -0.439   9.373
   758G11  H01K51701   6.709  -0.531   9.316
   758G11  O00J51702   6.870  -0.466   9.138
   758G11  C0GA51703   6.956  -0.479   9.029
   758G11  C0G951704   6.941  -0.594   8.951
   758G11  H01H51705   6.870  -0.670   8.978
   758G11  C0G851706   7.021  -0.617   8.832
   758G11  C0G751707   7.007  -0.733   8.745
   758G11  H01I51708   6.932  -0.808   8.767
   758G11  O00I51709   7.083  -0.744   8.632
   758G11  C0G651710   7.198  -0.667   8.627
   758G11  H01J51711   7.275  -0.706   8.562
   758G11  C02D51712   7.215  -0.546   8.707
   758G11  C02C51713   7.326  -0.466   8.686
   758G11  C01751714   7.400  -0.467   8.570
   758G11  C01651715   7.522  -0.399   8.558
   758G11  O00151716   7.360  -0.536   8.461
   758G11  C01851717   7.430  -0.542   8.341
   758G11  C00951718   7.556  -0.479   8.334
   758G11  C00851719   7.641  -0.469   8.223
   758G11  C00751720   7.637  -0.499   8.083
   758G11  C00651721   7.529  -0.562   8.015
   758G11  C00551722   7.528  -0.603   7.878
   758G11  C00451723   7.625  -0.568   7.773
   758G11  C00351724   7.758  -0.503   7.774
   758G11  C00251725   7.824  -0.478   7.655
   758G11  C00P51726   7.950  -0.420   7.651
   758G11  C00O51727   8.018  -0.400   7.528
   758G11  C00N51728   8.142  -0.339   7.521
   758G11  C01051729   8.203  -0.303   7.401
   758G11  C01151730   8.328  -0.240   7.393
   758G11  C01Q51731   8.386  -0.210   7.272
   758G11  C01U51732   8.324  -0.249   7.153
   758G11  C01251733   8.190  -0.301   7.161
   758G11  H00051734   8.130  -0.334   7.077
   758G11  C01V51735   8.391  -0.227   7.031
   758G11  H00751736   8.328  -0.240   6.944
   758G11  O00551737   8.510  -0.161   7.012
   758G11  C01W51738   8.567  -0.133   7.134
   758G11  C03151739   8.697  -0.073   7.132
   758G11  C03251740   8.776  -0.065   7.249
   758G11  H00A51741   8.866  -0.007   7.253
   758G11  C03351742   8.720  -0.104   7.369
   758G11  H00B51743   8.785  -0.094   7.455
   758G11  C01O51744   8.582  -0.127   7.381
   758G11  C01N51745   8.516  -0.133   7.507
   758G11  C01M51746   8.577  -0.098   7.633
   758G11  C01L51747   8.678  -0.000   7.695
   758G11  C01K51748   8.677  -0.023   7.831
   758G11  C01Y51749   8.731   0.057   7.934
   758G11  C02I51750   8.816   0.161   7.893
   758G11  C02N51751   8.873   0.240   7.992
   758G11  C02M51752   8.958   0.345   7.949
   758G11  C02L51753   8.999   0.360   7.813
   758G11  C02K51754   8.931   0.280   7.717
   758G11  C02U51755   8.950   0.318   7.586
   758G11  C02V51756   9.055   0.404   7.549
   758G11  C03H51757   9.095   0.412   7.414
   758G11  H00C51758   9.058   0.339   7.344
   758G11  C02W51759   8.855   0.281   7.493
   758G11  C02X51760   8.766   0.189   7.535
   758G11  C02Y51761   8.680   0.178   7.425
   758G11  H00851762   8.594   0.115   7.409
   758G11  C02Z51763   8.727   0.260   7.311
   758G11  O00451764   8.684   0.273   7.201
   758G11  O00351765   8.836   0.320   7.360
   758G11  C02J51766   8.837   0.181   7.753
   758G11  C01Z51767   8.676   0.034   8.059
   758G11  C02051768   8.570  -0.061   8.085
   758G11  C01I51769   8.528  -0.147   7.985
   758G11  C01H51770   8.406  -0.206   7.986
   758G11  C00K51771   8.349  -0.259   7.869
   758G11  C01S51772   8.405  -0.231   7.745
   758G11  C01451773   8.340  -0.251   7.626
   758G11  C00J51774   8.222  -0.309   7.876
   758G11  C00I51775   8.157  -0.321   7.998
   758G11  C00H51776   8.215  -0.268   8.116
   758G11  C00G51777   8.149  -0.265   8.237
   758G11  C00S51778   8.029  -0.368   8.007
   758G11  C00T51779   7.978  -0.389   8.130
   758G11  C00U51780   7.845  -0.430   8.132
   758G11  C00R51781   7.960  -0.408   7.889
   758G11  C00L51782   8.157  -0.339   7.760
   758G11  C02851783   8.337  -0.208   8.106
   758G11  C02351784   8.382  -0.130   8.216
   758G11  C02451785   8.304  -0.116   8.333
   758G11  C02151786   8.501  -0.060   8.208
   758G11  C02251787   8.525   0.040   8.296
   758G11  C02H51788   8.443   0.058   8.412
   758G11  C03051789   8.456   0.174   8.485
   758G11  C03451790   8.560   0.257   8.462
   758G11  C02P51791   8.633   0.124   8.275
   758G11  C02B51792   8.714   0.121   8.156
   758G11  C01J51793   8.595  -0.132   7.864
   758G11  C01X51794   8.758   0.112   7.654
   758G11  C01T51795   8.529  -0.169   7.745
   758G11  H00951796   8.737  -0.039   7.038
   758G11  C01P51797   8.511  -0.158   7.262
   758G11  C01R51798   8.391  -0.202   7.512
   758G11  C00Z51799   8.136  -0.337   7.283
   758G11  O00051800   8.017  -0.404   7.283
   758G11  C00M51801   8.214  -0.311   7.638
   758G11  C00Y51802   7.957  -0.432   7.404
   758G11  C01351803   7.833  -0.484   7.407
   758G11  H00151804   7.768  -0.509   7.324
   758G11  C00Q51805   8.022  -0.386   7.767
   758G11  C00151806   7.763  -0.512   7.534
   758G11  C00051807   7.629  -0.570   7.533
   758G11  H00651808   7.586  -0.577   7.434
   758G11  C00W51809   7.828  -0.460   7.891
   758G11  C01G51810   7.567  -0.599   7.649
   758G11  H00551811   7.468  -0.642   7.638
   758G11  C01C51812   7.421  -0.703   7.866
   758G11  H00251813   7.402  -0.777   7.790
   758G11  C01B51814   7.364  -0.710   8.000
   758G11  C01D51815   7.258  -0.790   8.049
   758G11  H00351816   7.203  -0.865   7.993
   758G11  C01E51817   7.217  -0.777   8.176
   758G11  H00451818   7.137  -0.842   8.207
   758G11  O00251819   7.271  -0.696   8.271
   758G11  C01A51820   7.422  -0.617   8.090
   758G11  C00V51821   7.767  -0.467   8.023
   758G11  C01951822   7.374  -0.613   8.232
   758G11  C02E51823   7.356  -0.369   8.781
   758G11  C0FX51824   7.269  -0.344   8.888
   758G11  C0FW51825   7.289  -0.238   8.977
   758G11  C0GB51826   7.153  -0.421   8.898
   758G11  C0G351827   7.473  -0.296   8.771
   758G11  C07H51828   7.495  -0.196   8.865
   758G11  C0GC51829   7.125  -0.527   8.812
   758G11  C0G251830   7.060  -0.391   9.000
   758G11  C0G151831   7.084  -0.288   9.093
   758G11  C0FB51832   6.932  -0.140   9.390
   758G11  C0F251833   7.144   0.037   9.343
   758G11  C0FY51834   7.200  -0.210   9.078
   758G11  C0F551835   7.340   0.096   9.223
   758G11  C0FV51836   7.401  -0.160   8.961
   758G11  C07951837   7.553   0.137   9.113
   758G11  C07A51838   7.772   0.166   9.020
   758G11  C06Y51839   7.965   0.103   8.831
   758G11  C07D51840   7.609  -0.119   8.853
   758G11  C01F51841   7.558  -0.318   8.665
   758G11  C00A51842   7.608  -0.423   8.453
   758G11  C00X51843   7.773  -0.428   8.247
   758G11  C00F51844   8.029  -0.336   8.241
   758G11  C02951845   7.893  -0.212   8.559
   758G11  C02551846   8.188  -0.187   8.345
   758G11  C06U51847   8.041  -0.039   8.647
   758G11  C02A51848   8.336  -0.022   8.434
   758G11  C05Y51849   8.369   0.206   8.588
   758G11  C05Z51850   8.385   0.325   8.662
   758G11  C06051851   8.482   0.415   8.632
   758G11  C06251852   8.497   0.536   8.704
   758G11  C06T51853   8.064   0.064   8.737
   758G11  C06A51854   8.295   0.352   8.767
   758G11  C06Z51855   7.987   0.212   8.914
   758G11  C06Q51856   7.996   0.460   9.041
   758G11  C06851857   8.302   0.480   8.825
   758G11  C06751858   8.396   0.571   8.794
   758G11  C06351859   8.365   0.956   8.944
   758G11  C06C51860   8.341   1.089   8.976
   758G11  C06D51861   8.431   1.192   8.954
   758G11  C06E51862   8.411   1.328   8.959
   758G11  C07Q51863   8.293   1.370   9.014
   758G11  C07P51864   8.201   1.269   9.063
   758G11  C07T51865   8.088   1.307   9.130
   758G11  C07U51866   7.996   1.211   9.177
   758G11  C07V51867   7.886   1.254   9.241
   758G11  C08451868   7.862   1.390   9.257
   758G11  C08C51869   7.947   1.485   9.205
   758G11  C08B51870   7.911   1.611   9.211
   758G11  C08A51871   7.992   1.703   9.142
   758G11  C08951872   8.108   1.673   9.066
   758G11  C08851873   8.187   1.770   8.996
   758G11  C08751874   8.303   1.734   8.934
   758G11  C08651875   8.344   1.604   8.953
   758G11  C08X51876   8.134   1.895   8.979
   758G11  C08T51877   8.010   1.933   9.055
   758G11  C08D51878   8.145   1.540   9.078
   758G11  C08U51879   7.955   1.835   9.136
   758G11  C08V51880   7.842   1.879   9.194
   758G11  C0CY51881   7.752   1.786   9.252
   758G11  C0CX51882   7.627   1.830   9.285
   758G11  C0CW51883   7.539   1.739   9.344
   758G11  C0CV51884   7.575   1.608   9.351
   758G11  C0D451885   7.701   1.566   9.309
   758G11  C0CU51886   7.486   1.517   9.405
   758G11  C0CT51887   7.360   1.548   9.462
   758G11  C0CS51888   7.325   1.679   9.451
   758G11  C0D651889   7.531   1.386   9.406
   758G11  C0EC51890   7.657   1.340   9.363
   758G11  C07X51891   7.691   1.205   9.368
   758G11  C0DL51892   7.449   1.297   9.475
   758G11  C0DK51893   7.488   1.165   9.489
   758G11  C0DN51894   7.387   1.100   9.547
   758G11  C0D851895   7.323   1.325   9.535
   758G11  C08W51896   7.807   2.010   9.162
   758G11  C0CQ51897   7.675   2.056   9.198
   758G11  C09351898   7.789   1.656   9.263
   758G11  C09251899   7.740   1.434   9.308
   758G11  C08551900   8.065   1.448   9.143
   758G11  C07S51901   8.262   1.507   9.015
   758G11  C06F51902   8.502   1.428   8.919
   758G11  C07O51903   8.223   1.131   9.037
   758G11  C07N51904   8.135   1.035   9.088
   758G11  C05D51905   8.548   1.152   8.909
   758G11  C05C51906   8.647   1.244   8.886
   758G11  C05N51907   8.748   1.178   8.825
   758G11  C05M51908   8.715   0.831   8.676
   758G11  C05I51909   8.594   0.625   8.666
   758G11  C06151910   8.570   0.373   8.534
   758G11  C02Q51911   8.649   0.223   8.363
   758G11  C02O51912   8.817   0.217   8.123
   758G11  C03Q51913   8.858   0.497   8.359
   758G11  C03O51914   8.975   0.697   8.311
   758G11  C03L51915   9.205   0.775   8.044
   758G11  C02S51916   9.003   0.456   8.035
   758G11  C02T51917   9.088   0.470   7.771
   758G11  C03K51918   9.259   0.776   7.912
   758G11  C03I51919   9.125   0.477   7.639
   758G11  C03G51920   9.185   0.509   7.370
   758G11  H00D51921   9.223   0.511   7.269
   758G11  C03J51922   9.364   0.761   7.650
   758G11  C03W51923   9.550   0.942   7.544
   758G11  C04I51924   9.540   1.073   7.732
   758G11  C04K51925   9.560   1.309   7.876
   758G11  C04N51926   9.537   1.426   7.944
   758G11  C04X51927   9.432   1.554   8.129
   758G11  C05051928   9.297   1.696   8.293
   758G11  C05W51929   9.229   1.449   8.407
   758G11  C05S51930   8.951   1.789   8.603
   758G11  C05R51931   9.029   1.449   8.646
   758G11  C05O51932   8.840   1.265   8.762
   758G11  C05B51933   8.620   1.383   8.872
   758G11  C05A51934   8.798   1.675   8.749
   758G11  C07R51935   8.467   1.563   8.904
   758G11  C08N51936   8.378   1.826   8.858
   758G11  C08M51937   8.319   1.950   8.835
   758G11  C08L51938   8.388   2.040   8.755
   758G11  C09151939   8.816   1.795   8.674
   758G11  C09K51940   8.814   2.136   8.745
   758G11  H00M51941   8.890   2.106   8.815
   758G11  C08K51942   8.519   2.007   8.717
   758G11  C09J51943   8.739   2.262   8.730
   758G11  C09I51944   8.710   2.384   8.801
   758G11  C09L51945   8.795   2.468   8.876
   758G11  H00N51946   8.899   2.453   8.900
   758G11  C09Q51947   8.741   2.585   8.917
   758G11  H00O51948   8.809   2.660   8.953
   758G11  O00B51949   8.611   2.618   8.900
   758G11  C09G51950   8.517   2.542   8.826
   758G11  C09F51951   8.392   2.603   8.806
   758G11  O00A51952   8.374   2.735   8.849
   758G11  C09P51953   8.247   2.787   8.833
   758G11  H00P51954   8.230   2.889   8.801
   758G11  C09O51955   8.136   2.707   8.876
   758G11  C09D51956   8.145   2.571   8.830
   758G11  C09C51957   8.042   2.469   8.839
   758G11  C09N51958   7.913   2.465   8.910
   758G11  C09T51959   7.883   2.556   9.010
   758G11  C09S51960   7.925   2.693   9.014
   758G11  C0CP51961   7.834   2.751   9.103
   758G11  C0CN51962   7.744   2.665   9.162
   758G11  C0CO51963   7.667   2.718   9.272
   758G11  H01451964   7.600   2.656   9.330
   758G11  C0CZ51965   7.670   2.861   9.295
   758G11  H01551966   7.611   2.894   9.379
   758G11  C0D051967   7.757   2.947   9.225
   758G11  C0G551968   7.767   3.090   9.233
   758G11  H01F51969   7.691   3.136   9.295
   758G11  C0G451970   7.857   3.159   9.162
   758G11  H01G51971   7.858   3.267   9.167
   758G11  O00H51972   7.956   3.105   9.088
   758G11  C0D251973   7.950   2.968   9.072
   758G11  C09V51974   8.040   2.903   8.980
   758G11  H00Q51975   8.114   2.976   8.950
   758G11  C0D151976   7.851   2.892   9.135
   758G11  C09R51977   8.030   2.767   8.950
   758G11  C09H51978   8.572   2.420   8.782
   758G11  C09E51979   8.273   2.523   8.779
   758G11  C09B51980   8.046   2.350   8.775
   758G11  C08Z51981   8.327   2.164   8.724
   758G11  C08O51982   8.188   1.981   8.883
   758G11  C09A51983   7.940   2.264   8.811
   758G11  C08S51984   7.915   2.036   9.070
   758G11  C09951985   7.853   2.333   8.892
   758G11  C09U51986   7.762   2.538   9.094
   758G11  C0BO51987   7.331   2.392   9.230
   758G11  C0CL51988   7.640   2.188   9.173
   758G11  C0D351989   7.589   1.961   9.262
   758G11  C0D551990   7.415   1.781   9.389
   758G11  C0BR51991   7.307   2.178   9.336
   758G11  C0BQ51992   7.257   2.307   9.314
   758G11  C0BL51993   7.156   2.560   9.248
   758G11  C0AF51994   6.930   2.655   9.376
   758G11  C0BH51995   6.940   2.308   9.497
   758G11  C0BG51996   6.862   2.219   9.564
   758G11  C0BD51997   6.720   2.406   9.625
   758G11  C0AG51998   6.830   2.703   9.453
   758G11  C0AI51999   6.678   2.881   9.487
   758G11  C0AV52000   6.421   2.950   9.546
   758G11  C0BB52001   6.473   2.652   9.760
   758G11  O00C52002   6.212   2.866   9.651
   758G11  C0BC52003   6.366   2.572   9.792
   758G11  C0B952004   6.600   2.453   9.687
   758G11  O00E52005   6.420   2.135   9.728
   758G11  C0CA52006   6.450   2.004   9.752
   758G11  O00F52007   6.352   1.932   9.785
   758G11  C0BF52008   6.746   2.271   9.620
   758G11  C0C552009   6.587   1.965   9.728
   758G11  C0C452010   6.621   1.830   9.749
   758G11  H01152011   6.543   1.765   9.787
   758G11  C0C852012   6.899   2.086   9.574
   758G11  C0C252013   6.750   1.791   9.717
   758G11  C0C352014   6.800   1.658   9.732
   758G11  C0DY52015   6.740   1.557   9.801
   758G11  H01652016   6.648   1.568   9.857
   758G11  C0DX52017   6.814   1.436   9.777
   758G11  C0DW52018   6.742   1.317   9.766
   758G11  C0BY52019   7.053   1.911   9.536
   758G11  C0DB52020   6.916   1.606   9.678
   758G11  C0CC52021   7.208   1.727   9.502
   758G11  C0D752022   7.273   1.456   9.525
   758G11  C0DZ52023   6.939   1.469   9.700
   758G11  C0DM52024   7.282   1.198   9.588
   758G11  C0DQ52025   6.937   1.167   9.697
   758G11  C0DV52026   6.806   1.198   9.721
   758G11  C0E052027   6.598   1.291   9.774
   758G11  C0FO52028   6.461   0.966   9.850
   758G11  C0E352029   6.489   1.313   9.876
   758G11  H01752030   6.484   1.394   9.947
   758G11  C0GV52031   6.368   0.987   9.954
   758G11  C0ES52032   6.557   0.865   9.864
   758G11  C0GQ52033   6.375   0.676  10.128
   758G11  C0FJ52034   6.689   0.468  10.115
   758G11  C0ED52035   6.740   0.646   9.901
   758G11  C0ER52036   6.880   0.352   9.774
   758G11  C0EP52037   7.046   0.437   9.640
   758G11  C0E652038   6.891   0.780   9.733
   758G11  C0DE52039   7.173   0.880   9.617
   758G11  C0EA52040   7.254   0.519   9.510
   758G11  C0DF52041   7.314   0.871   9.613
   758G11  C08052042   7.539   0.667   9.416
   758G11  C0DO52043   7.405   0.967   9.555
   758G11  C0DJ52044   7.610   1.114   9.428
   758G11  C07K52045   7.763   0.793   9.317
   758G11  C07W52046   7.800   1.161   9.301
   758G11  C08352047   8.024   1.076   9.161
   758G11  C07J52048   7.872   0.752   9.236
   758G11  C06O52049   8.096   0.672   9.069
   758G11  C06M52050   8.164   0.900   9.063
   768G11  C07152051   2.073   8.799   9.631
   768G11  C07L52052   2.066   8.661   9.651
   768G11  C07M52053   2.154   8.600   9.741
   768G11  C07Y52054   2.135   8.468   9.773
   768G11  C08152055   2.030   8.392   9.717
   768G11  C08252056   2.018   8.256   9.763
   768G11  C0DI52057   1.915   8.158   9.733
   768G11  C0DH52058   1.815   8.148   9.635
   768G11  C0DG52059   1.714   8.044   9.669
   768G11  C0E952060   1.651   7.952   9.578
   768G11  C0E852061   1.674   7.816   9.643
   768G11  C0E752062   1.629   7.682   9.597
   768G11  C0EB52063   1.538   7.664   9.480
   768G11  C0EF52064   1.498   7.538   9.415
   768G11  C0EE52065   1.569   7.416   9.397
   768G11  C0FD52066   1.583   7.345   9.270
   768G11  C0FE52067   1.512   7.372   9.151
   768G11  H01B52068   1.435   7.447   9.147
   768G11  C0FF52069   1.528   7.300   9.034
   768G11  H01A52070   1.478   7.335   8.945
   768G11  C0FG52071   1.630   7.206   9.032
   768G11  H01852072   1.662   7.164   8.937
   768G11  C0FH52073   1.705   7.170   9.146
   768G11  C0FI52074   1.809   7.066   9.145
   768G11  H01952075   1.832   7.009   9.056
   768G11  O00K52076   1.873   7.026   9.257
   768G11  C0FL52077   1.827   7.081   9.375
   768G11  C0FK52078   1.733   7.188   9.382
   768G11  C0FM52079   1.699   7.239   9.503
   768G11  C0FN52080   1.727   7.167   9.619
   768G11  C0FP52081   1.820   7.063   9.613
   768G11  C0GO52082   1.860   6.987   9.721
   768G11  C0GN52083   1.974   6.910   9.722
   768G11  C0GR52084   2.046   6.892   9.604
   768G11  C0GS52085   2.165   6.811   9.598
   768G11  H01Q52086   2.231   6.806   9.512
   768G11  C0GT52087   2.221   6.762   9.715
   768G11  H01O52088   2.313   6.706   9.713
   768G11  C0GU52089   2.153   6.787   9.839
   768G11  H01P52090   2.190   6.753   9.935
   768G11  O00L52091   1.999   6.954   9.490
   768G11  C0GM52092   2.028   6.861   9.844
   768G11  C0GL52093   1.956   6.899   9.966
   768G11  H01R52094   2.005   6.867  10.057
   768G11  C0GK52095   1.845   6.980   9.966
   768G11  C0GP52096   1.769   7.055  10.064
   768G11  C0E252097   1.668   7.129   9.989
   768G11  C0E152098   1.664   7.252  10.060
   768G11  C0DU52099   1.689   7.374   9.994
   768G11  C0DT52100   1.665   7.421   9.862
   768G11  C0E452101   1.649   7.342   9.749
   768G11  C0E552102   1.652   7.419   9.636
   768G11  C0DS52103   1.687   7.548   9.812
   768G11  C0DR52104   1.772   7.620   9.897
   768G11  C0DD52105   1.814   7.748   9.866
   768G11  C0DC52106   1.914   7.769   9.979
   768G11  C0DP52107   1.921   7.661  10.075
   768G11  C0DA52108   2.009   7.654  10.196
   768G11  C0D952109   2.127   7.730  10.246
   768G11  C0CR52110   2.202   7.694  10.362
   768G11  C0C052111   2.167   7.586  10.440
   768G11  C0BZ52112   2.228   7.538  10.554
   768G11  C0C152113   2.181   7.431  10.630
   768G11  C0C752114   2.261   7.378  10.729
   768G11  C0C652115   2.229   7.257  10.793
   768G11  C0C952116   2.315   7.201  10.890
   768G11  C0B852117   2.281   7.072  10.941
   768G11  C0B752118   2.362   7.012  11.044
   768G11  C0B652119   2.358   6.876  11.108
   768G11  C0B552120   2.324   6.758  11.034
   768G11  H00Z52121   2.277   6.756  10.937
   768G11  C0B452122   2.414   6.652  11.082
   768G11  H01052123   2.426   6.554  11.038
   768G11  C0B352124   2.487   6.702  11.194
   768G11  C0AP52125   2.630   6.696  11.240
   768G11  C0AQ52126   2.652   6.833  11.270
   768G11  C0AR52127   2.787   6.885  11.268
   768G11  C0AS52128   2.794   7.018  11.244
   768G11  C0AT52129   2.695   7.094  11.192
   768G11  C0BA52130   2.569   7.039  11.183
   768G11  C0AU52131   2.721   7.213  11.130
   768G11  C0BE52132   2.624   7.276  11.055
   768G11  C0BI52133   2.656   7.396  10.992
   768G11  C0BJ52134   2.790   7.446  11.005
   768G11  C0BK52135   2.820   7.568  10.952
   768G11  C0BW52136   2.730   7.633  10.870
   768G11  C0BV52137   2.610   7.572  10.840
   768G11  C0BU52138   2.529   7.624  10.742
   768G11  C0BX52139   2.413   7.558  10.702
   768G11  C0BT52140   2.567   7.745  10.679
   768G11  C0CD52141   2.497   7.789  10.570
   768G11  C0CB52142   2.380   7.722  10.524
   768G11  C0CE52143   2.537   7.907  10.507
   768G11  C0CK52144   2.638   7.988  10.559
   768G11  C0BS52145   2.715   7.939  10.666
   768G11  C0CJ52146   2.820   8.015  10.724
   768G11  C0BP52147   2.906   7.956  10.821
   768G11  C0CI52148   3.001   8.023  10.886
   768G11  C0CH52149   3.095   7.950  10.958
   768G11  H01252150   3.175   8.009  11.000
   768G11  C0BN52151   3.084   7.810  10.971
   768G11  C0CG52152   3.190   7.738  11.030
   768G11  C0CF52153   3.324   7.797  11.051
   768G11  H01352154   3.344   7.900  11.029
   768G11  O00G52155   3.422   7.726  11.113
   768G11  C0AA52156   3.406   7.591  11.126
   768G11  C0A952157   3.503   7.521  11.195
   768G11  H00U52158   3.592   7.574  11.226
   768G11  C0A852159   3.489   7.384  11.217
   768G11  H00V52160   3.574   7.343  11.270
   768G11  C0A752161   3.373   7.307  11.174
   768G11  C0A652162   3.260   7.386  11.137
   768G11  C0A552163   3.128   7.346  11.138
   768G11  C0A452164   3.086   7.217  11.190
   768G11  C0A352165   3.154   7.091  11.232
   768G11  C0A252166   3.286   7.060  11.197
   768G11  C0A152167   3.332   6.927  11.209
   768G11  C0A052168   3.279   6.796  11.237
   768G11  C09Z52169   3.377   6.694  11.238
   768G11  C09Y52170   3.342   6.555  11.258
   768G11  H00Y52171   3.418   6.480  11.269
   768G11  C09X52172   3.206   6.520  11.265
   768G11  C09W52173   3.182   6.382  11.268
   768G11  H00R52174   3.264   6.313  11.270
   768G11  C0AX52175   3.050   6.334  11.260
   768G11  H00S52176   3.026   6.229  11.267
   768G11  C0AW52177   2.945   6.429  11.260
   768G11  H00T52178   2.846   6.385  11.264
   768G11  C0AN52179   2.969   6.570  11.260
   768G11  C0AO52180   2.866   6.664  11.261
   768G11  C0AM52181   3.101   6.618  11.256
   768G11  C0B252182   3.519   6.714  11.218
   768G11  O00D52183   3.602   6.625  11.198
   768G11  C0B152184   3.570   6.845  11.220
   768G11  H00W52185   3.678   6.856  11.227
   768G11  C0AL52186   3.138   6.751  11.247
   768G11  C0AK52187   3.031   6.845  11.254
   768G11  C0B052188   3.476   6.948  11.207
   768G11  C0AZ52189   3.505   7.092  11.202
   768G11  H00X52190   3.609   7.122  11.205
   768G11  C0AJ52191   3.047   6.993  11.248
   768G11  C0AH52192   2.948   7.193  11.201
   768G11  C0AE52193   3.019   7.419  11.081
   768G11  C0AD52194   3.045   7.549  11.032
   768G11  C0AY52195   3.382   7.166  11.185
   768G11  C0AB52196   3.277   7.526  11.104
   768G11  C0AC52197   3.176   7.604  11.051
   768G11  C0BM52198   2.961   7.753  10.937
   768G11  C0CM52199   2.993   8.163  10.885
   768G11  C09M52200   2.942   8.225  10.759
   768G11  C09852201   3.001   8.346  10.717
   768G11  C08R52202   2.969   8.449  10.620
   768G11  C08Q52203   3.051   8.562  10.615
   768G11  C08P52204   3.035   8.704  10.586
   768G11  C08Y52205   3.118   8.790  10.659
   768G11  C09752206   3.190   8.748  10.769
   768G11  C09652207   3.195   8.843  10.866
   768G11  C09052208   3.162   8.966  10.793
   768G11  C09552209   3.137   9.093  10.852
   768G11  C09452210   3.104   9.206  10.778
   768G11  C08J52211   3.066   9.224  10.638
   768G11  C08I52212   2.982   9.339  10.648
   768G11  C08H52213   2.892   9.332  10.531
   768G11  C08G52214   2.899   9.192  10.486
   768G11  C08F52215   2.833   9.112  10.383
   768G11  C08E52216   2.766   9.171  10.273
   768G11  C05952217   2.755   9.308  10.246
   768G11  C05852218   2.681   9.354  10.133
   768G11  C05752219   2.663   9.493  10.093
   768G11  C05652220   2.731   9.586  10.168
   768G11  C05552221   2.815   9.553  10.264
   768G11  C05452222   2.822   9.657  10.352
   768G11  C05352223   2.732   9.761  10.308
   768G11  C05252224   2.686   9.877  10.380
   768G11  C05152225   2.733   9.902  10.520
   768G11  C05U52226   2.813   9.820  10.609
   768G11  C05T52227   2.861   9.681  10.595
   768G11  C06K52228   2.969   9.671  10.693
   768G11  H00J52229   3.043   9.592  10.695
   768G11  C06L52230   2.965   9.783  10.780
   768G11  H00I52231   3.027   9.805  10.865
   768G11  C05V52232   2.881   9.881  10.720
   768G11  C06J52233   2.856  10.008  10.767
   768G11  H00K52234   2.913  10.051  10.848
   768G11  C05X52235   2.751  10.075  10.704
   768G11  C06I52236   2.699  10.197  10.749
   768G11  H00L52237   2.741  10.227  10.844
   768G11  C04Z52238   2.597  10.273  10.688
   768G11  C06H52239   2.547  10.396  10.748
   768G11  H00H52240   2.593  10.436  10.837
   768G11  C04Y52241   2.442  10.466  10.681
   768G11  C06G52242   2.389  10.590  10.744
   768G11  O00952243   2.422  10.644  10.850
   768G11  O00852244   2.287  10.650  10.674
   768G11  C04P52245   2.225  10.597  10.565
   768G11  C04J52246   2.106  10.650  10.507
   768G11  C04Q52247   2.031  10.756  10.553
   768G11  H00E52248   2.052  10.798  10.651
   768G11  C04M52249   1.908  10.794  10.497
   768G11  C04R52250   1.824  10.895  10.544
   768G11  H00F52251   1.849  10.958  10.629
   768G11  C04S52252   1.713  10.933  10.475
   768G11  H00G52253   1.655  11.020  10.500
   768G11  O00752254   1.675  10.877  10.355
   768G11  C03V52255   1.756  10.777  10.305
   768G11  C03U52256   1.721  10.723  10.180
   768G11  O00652257   1.607  10.762  10.124
   768G11  C03F52258   1.575  10.721  10.001
   768G11  C03E52259   1.640  10.609   9.940
   768G11  C03D52260   1.753  10.557  10.008
   768G11  C03C52261   1.821  10.450   9.950
   768G11  C03B52262   1.766  10.400   9.832
   768G11  C03A52263   1.829  10.288   9.774
   768G11  C03952264   1.942  10.221   9.830
   768G11  C03852265   1.962  10.113   9.744
   768G11  C03752266   1.870  10.125   9.637
   768G11  C03652267   1.861  10.032   9.537
   768G11  C02R52268   1.762  10.005   9.442
   768G11  C03552269   1.796   9.877   9.392
   768G11  C03R52270   1.906   9.820   9.454
   768G11  C03S52271   1.918   9.684   9.474
   768G11  C04952272   2.014   9.645   9.561
   768G11  C04852273   2.064   9.743   9.652
   768G11  C03P52274   2.025   9.883   9.652
   768G11  C04752275   2.175   9.692   9.717
   768G11  C04652276   2.258   9.765   9.795
   768G11  C04552277   2.248   9.897   9.847
   768G11  C03T52278   2.155   9.996   9.833
   768G11  C04452279   2.188  10.099   9.927
   768G11  C04352280   2.322  10.080   9.968
   768G11  C04252281   2.348  10.158  10.083
   768G11  C04152282   2.225  10.234  10.093
   768G11  C04052283   2.200  10.317  10.202
   768G11  C03Z52284   2.094  10.417  10.209
   768G11  C04H52285   2.127  10.482  10.323
   768G11  C04G52286   2.231  10.426  10.391
   768G11  C03N52287   1.979  10.460  10.133
   768G11  C03Y52288   1.905  10.564  10.194
   768G11  C03X52289   1.949  10.631  10.317
   768G11  C04F52290   2.281  10.331  10.318
   768G11  C04E52291   2.387  10.259  10.373
   768G11  C04O52292   2.435  10.299  10.504
   768G11  C04D52293   2.452  10.150  10.313
   768G11  C04V52294   2.540  10.070  10.392
   768G11  C04W52295   2.588  10.101  10.521
   768G11  C04C52296   2.447  10.100  10.187
   768G11  C04L52297   2.540   9.983  10.186
   768G11  C04U52298   2.572   9.903  10.064
   768G11  C05Q52299   2.617   9.769  10.079
   768G11  C05P52300   2.565   9.679   9.987
   768G11  C04T52301   2.464   9.748   9.915
   768G11  C04B52302   2.462   9.878   9.966
   768G11  C03M52303   2.125  10.212   9.989
   768G11  C04A52304   2.349   9.949   9.936
   768G11  C05H52305   2.369   9.693   9.834
   768G11  C05G52306   2.353   9.559   9.774
   768G11  C05F52307   2.411   9.442   9.822
   768G11  C05E52308   2.356   9.311   9.807
   768G11  C05L52309   2.253   9.238   9.735
   768G11  C05K52310   2.159   9.305   9.655
   768G11  C05J52311   2.141   9.450   9.651
   768G11  C06652312   2.072   9.218   9.576
   768G11  C06552313   2.078   9.075   9.593
   768G11  C06452314   2.166   9.019   9.680
   768G11  C06N52315   1.980   8.997   9.524
   768G11  C06952316   1.882   9.054   9.443
   768G11  C06P52317   1.786   8.983   9.374
   768G11  C06R52318   1.685   9.040   9.298
   768G11  C06B52319   1.680   9.174   9.290
   768G11  C06S52320   1.570   9.231   9.225
   768G11  C02G52321   1.550   9.367   9.232
   768G11  C02F52322   1.437   9.424   9.175
   768G11  C02752323   1.336   9.341   9.117
   768G11  C02652324   1.215   9.391   9.080
   768G11  C00E52325   1.114   9.315   9.037
   768G11  C00D52326   0.990   9.368   9.011
   768G11  C00C52327   0.897   9.288   8.960
   768G11  C00B52328   0.907   9.158   8.930
   768G11  C01552329   1.026   9.102   8.976
   768G11  C07F52330   1.036   8.966   8.979
   768G11  C07E52331   1.154   8.910   9.026
   768G11  C06W52332   1.257   8.989   9.064
   768G11  C06V52333   1.253   9.125   9.060
   768G11  C06X52334   1.378   8.931   9.119
   768G11  C07B52335   1.381   8.796   9.132
   768G11  C07C52336   1.273   8.714   9.094
   768G11  C0FU52337   1.271   8.577   9.128
   768G11  C0F752338   1.163   8.496   9.084
   768G11  C0F652339   1.167   8.355   9.109
   768G11  C0F852340   1.063   8.277   9.065
   768G11  C0F952341   1.064   8.139   9.094
   768G11  C0FA52342   0.960   8.061   9.047
   768G11  C0FZ52343   0.867   8.121   8.966
   768G11  C0G052344   0.758   8.043   8.915
   768G11  C0GD52345   0.740   7.910   8.945
   768G11  C0FC52346   0.838   7.849   9.031
   768G11  C0GH52347   0.825   7.714   9.068
   768G11  C0EY52348   0.927   7.655   9.144
   768G11  C0EX52349   0.927   7.521   9.168
   768G11  C0EW52350   1.031   7.462   9.233
   768G11  C0FR52351   1.026   7.323   9.273
   768G11  H01D52352   1.106   7.263   9.314
   768G11  C0FS52353   0.911   7.249   9.253
   768G11  H01C52354   0.906   7.144   9.277
   768G11  C0GJ52355   0.810   7.311   9.177
   768G11  H01N52356   0.715   7.268   9.152
   768G11  C0EV52357   1.143   7.535   9.265
   768G11  C0FT52358   1.267   7.480   9.325
   768G11  H01E52359   1.276   7.375   9.347
   768G11  C0EU52360   1.144   7.673   9.245
   768G11  C0ET52361   1.250   7.755   9.287
   768G11  C0EI52362   1.266   7.888   9.264
   768G11  C0F152363   1.160   7.941   9.194
   768G11  C0F052364   1.045   7.871   9.156
   768G11  C0EH52365   1.376   7.965   9.312
   768G11  C0EG52366   1.480   7.907   9.402
   768G11  C0EJ52367   1.382   8.101   9.283
   768G11  C0F352368   1.278   8.161   9.211
   768G11  C0EK52369   1.487   8.185   9.334
   768G11  C0EL52370   1.583   8.134   9.425
   768G11  C0EM52371   1.694   8.235   9.448
   768G11  C0EN52372   1.693   8.361   9.394
   768G11  C07I52373   1.799   8.437   9.433
   768G11  C07452374   1.805   8.578   9.416
   768G11  C07352375   1.885   8.649   9.498
   768G11  C07252376   1.891   8.785   9.473
   768G11  C07552377   1.697   8.627   9.342
   768G11  C07652378   1.593   8.545   9.292
   768G11  C07852379   1.489   8.598   9.221
   768G11  C07G52380   1.694   8.763   9.326
   768G11  C07052381   1.588   8.819   9.253
   768G11  C07Z52382   1.864   8.370   9.534
   768G11  C07752383   1.585   8.409   9.323
   768G11  C0EO52384   1.485   8.325   9.295
   768G11  C0F452385   1.381   8.379   9.222
   768G11  C0EQ52386   1.357   7.702   9.360
   768G11  C0FQ52387   0.812   7.447   9.142
   768G11  C0GI52388   0.709   7.510   9.072
   768G11  H01L52389   0.622   7.450   9.050
   768G11  C0EZ52390   1.038   7.734   9.185
   768G11  C0GG52391   0.715   7.639   9.022
   768G11  C0GF52392   0.621   7.697   8.944
   768G11  H01M52393   0.536   7.639   8.912
   768G11  C0GE52394   0.635   7.829   8.900
   768G11  H01K52395   0.562   7.870   8.832
   768G11  O00J52396   0.660   8.098   8.846
   768G11  C0GA52397   0.657   8.232   8.825
   768G11  C0G952398   0.551   8.285   8.758
   768G11  H01H52399   0.466   8.226   8.727
   768G11  C0G852400   0.542   8.421   8.719
   768G11  C0G752401   0.441   8.488   8.642
   768G11  H01I52402   0.356   8.427   8.615
   768G11  O00I52403   0.447   8.617   8.597
   768G11  C0G652404   0.524   8.696   8.675
   768G11  H01J52405   0.524   8.800   8.645
   768G11  C02D52406   0.629   8.643   8.767
   768G11  C02C52407   0.721   8.727   8.831
   768G11  C01752408   0.708   8.869   8.835
   768G11  C01652409   0.816   8.947   8.881
   768G11  O00152410   0.595   8.932   8.791
   768G11  C01852411   0.569   9.065   8.812
   768G11  C00952412   0.673   9.143   8.863
   768G11  C00852413   0.665   9.284   8.891
   768G11  C00752414   0.561   9.386   8.896
   768G11  C00652415   0.433   9.368   8.852
   768G11  C00552416   0.328   9.465   8.865
   768G11  C00452417   0.326   9.596   8.927
   768G11  C00352418   0.434   9.682   8.974
   768G11  C00252419   0.408   9.809   9.029
   768G11  C00P52420   0.514   9.893   9.078
   768G11  C00O52421   0.494  10.023   9.118
   768G11  C00N52422   0.591  10.110   9.162
   768G11  C01052423   0.567  10.241   9.202
   768G11  C01152424   0.667  10.321   9.257
   768G11  C01Q52425   0.632  10.448   9.308
   768G11  C01U52426   0.501  10.494   9.304
   768G11  C01252427   0.403  10.415   9.239
   768G11  H00052428   0.298  10.439   9.249
   768G11  C01V52429   0.476  10.617   9.370
   768G11  H00752430   0.373  10.648   9.363
   768G11  O00552431   0.564  10.686   9.450
   768G11  C01W52432   0.691  10.631   9.460
   768G11  C03152433   0.779  10.685   9.554
   768G11  C03252434   0.911  10.641   9.573
   768G11  H00A52435   0.979  10.690   9.641
   768G11  C03352436   0.946  10.529   9.490
   768G11  H00B52437   1.038  10.474   9.504
   768G11  C01O52438   0.863  10.477   9.392
   768G11  C01N52439   0.904  10.364   9.326
   768G11  C01M52440   1.046  10.313   9.316
   768G11  C01L52441   1.195  10.337   9.360
   768G11  C01K52442   1.268  10.218   9.313
   768G11  C01Y52443   1.397  10.169   9.349
   768G11  C02I52444   1.467  10.245   9.443
   768G11  C02N52445   1.597  10.201   9.483
   768G11  C02M52446   1.665  10.273   9.586
   768G11  C02L52447   1.599  10.377   9.655
   768G11  C02K52448   1.482  10.432   9.593
   768G11  C02U52449   1.441  10.563   9.639
   768G11  C02V52450   1.483  10.619   9.759
   768G11  C03H52451   1.424  10.734   9.820
   768G11  H00C52452   1.340  10.784   9.775
   768G11  C02W52453   1.347  10.630   9.557
   768G11  C02X52454   1.274  10.557   9.464
   768G11  C02Y52455   1.199  10.658   9.404
   768G11  H00852456   1.131  10.653   9.320
   768G11  C02Z52457   1.223  10.793   9.466
   768G11  O00452458   1.169  10.908   9.444
   768G11  O00352459   1.320  10.765   9.557
   768G11  C02J52460   1.414  10.370   9.487
   768G11  C01Z52461   1.431  10.040   9.307
   768G11  C02052462   1.341   9.963   9.241
   768G11  C01I52463   1.223  10.015   9.202
   768G11  C01H52464   1.121   9.931   9.160
   768G11  C00K52465   0.987   9.975   9.159
   768G11  C01S52466   0.951  10.104   9.203
   768G11  C01452467   0.827  10.150   9.217
   768G11  C00J52468   0.884   9.894   9.120
   768G11  C00I52469   0.907   9.765   9.091
   768G11  C00H52470   1.034   9.717   9.107
   768G11  C00G52471   1.065   9.584   9.082
   768G11  C00S52472   0.801   9.680   9.050
   768G11  C00T52473   0.841   9.555   9.015
   768G11  C00U52474   0.744   9.473   8.965
   768G11  C00R52475   0.669   9.720   9.035
   768G11  C00L52476   0.750   9.934   9.121
   768G11  C02852477   1.139   9.796   9.143
   768G11  C02352478   1.266   9.744   9.165
   768G11  C02452479   1.291   9.610   9.145
   768G11  C02152480   1.364   9.832   9.214
   768G11  C02252481   1.485   9.775   9.248
   768G11  C02H52482   1.507   9.636   9.240
   768G11  C03052483   1.630   9.577   9.282
   768G11  C03452484   1.726   9.657   9.334
   768G11  C02P52485   1.581   9.857   9.306
   768G11  C02B52486   1.556   9.989   9.340
   768G11  C01J52487   1.190  10.146   9.241
   768G11  C01X52488   1.283  10.421   9.438
   768G11  C01T52489   1.057  10.190   9.240
   768G11  H00952490   0.745  10.771   9.611
   768G11  C01P52491   0.730  10.515   9.381
   768G11  C01R52492   0.801  10.279   9.264
   768G11  C00Z52493   0.439  10.289   9.195
   768G11  O00052494   0.339  10.210   9.143
   768G11  C00M52495   0.723  10.064   9.173
   768G11  C00Y52496   0.367  10.083   9.105
   768G11  C01352497   0.260  10.001   9.072
   768G11  H00152498   0.160  10.041   9.076
   768G11  C00Q52499   0.643   9.850   9.083
   768G11  C00152500   0.278   9.866   9.029
   768G11  C00052501   0.179   9.781   8.986
   768G11  H00652502   0.077   9.810   9.006
   768G11  C00W52503   0.568   9.635   8.988
   768G11  C01G52504   0.196   9.651   8.937
   768G11  H00552505   0.111   9.588   8.918
   768G11  C01C52506   0.217   9.404   8.796
   768G11  H00252507   0.113   9.426   8.781
   768G11  C01B52508   0.259   9.271   8.752
   768G11  C01D52509   0.175   9.172   8.688
   768G11  H00352510   0.070   9.190   8.676
   768G11  C01E52511   0.227   9.048   8.681
   768G11  H00452512   0.159   8.968   8.658
   768G11  O00252513   0.361   9.019   8.712
   768G11  C01A52514   0.393   9.249   8.788
   768G11  C00V52515   0.610   9.505   8.947
   768G11  C01952516   0.442   9.117   8.769
   768G11  C02E52517   0.841   8.667   8.885
   768G11  C0FX52518   0.846   8.529   8.897
   768G11  C0FW52519   0.957   8.473   8.968
   768G11  C0GB52520   0.739   8.449   8.852
   768G11  C0G352521   0.941   8.749   8.939
   768G11  C07H52522   1.055   8.691   8.996
   768G11  C0GC52523   0.641   8.505   8.778
   768G11  C0G252524   0.754   8.314   8.876
   768G11  C0G152525   0.861   8.258   8.943
   768G11  C0FB52526   0.946   7.927   9.079
   768G11  C0F252527   1.168   8.079   9.166
   768G11  C0FY52528   0.960   8.336   8.990
   768G11  C0F552529   1.274   8.298   9.179
   768G11  C0FV52530   1.058   8.553   9.023
   768G11  C07952531   1.379   8.516   9.190
   768G11  C07A52532   1.492   8.734   9.199
   768G11  C06Y52533   1.482   9.013   9.170
   768G11  C07D52534   1.163   8.770   9.033
   768G11  C01F52535   0.930   8.886   8.935
   768G11  C00A52536   0.801   9.085   8.885
   768G11  C00X52537   0.779   9.348   8.926
   768G11  C00F52538   0.966   9.503   9.031
   768G11  C02952539   1.133   9.180   9.018
   768G11  C02552540   1.195   9.528   9.100
   768G11  C06U52541   1.354   9.207   9.110
   768G11  C02A52542   1.415   9.559   9.182
   768G11  C05Y52543   1.647   9.443   9.286
   768G11  C05Z52544   1.762   9.387   9.347
   768G11  C06052545   1.852   9.468   9.416
   768G11  C06252546   1.959   9.414   9.487
   768G11  C06T52547   1.468   9.152   9.166
   768G11  C06A52548   1.774   9.253   9.355
   768G11  C06Z52549   1.586   8.955   9.240
   768G11  C06Q52550   1.792   8.846   9.388
   768G11  C06852551   1.878   9.194   9.427
   768G11  C06752552   1.970   9.273   9.497
   768G11  C06352553   2.258   9.096   9.748
   768G11  C06C52554   2.346   9.032   9.833
   768G11  C06D52555   2.431   9.103   9.912
   768G11  C06E52556   2.522   9.050  10.008
   768G11  C07Q52557   2.521   8.918  10.029
   768G11  C07P52558   2.428   8.839   9.957
   768G11  C07T52559   2.414   8.706   9.983
   768G11  C07U52560   2.328   8.624   9.903
   768G11  C07V52561   2.314   8.494   9.934
   768G11  C08452562   2.393   8.449  10.036
   768G11  C08C52563   2.484   8.523  10.104
   768G11  C08B52564   2.564   8.467  10.202
   768G11  C08A52565   2.658   8.545  10.267
   768G11  C08952566   2.671   8.680  10.250
   768G11  C08852567   2.757   8.756  10.330
   768G11  C08752568   2.765   8.892  10.314
   768G11  C08652569   2.686   8.948  10.211
   768G11  C08X52570   2.839   8.692  10.428
   768G11  C08T52571   2.820   8.550  10.450
   768G11  C08D52572   2.586   8.736  10.155
   768G11  C08U52573   2.727   8.493  10.376
   768G11  C08V52574   2.709   8.363  10.407
   768G11  C0CY52575   2.613   8.285  10.344
   768G11  C0CX52576   2.595   8.158  10.403
   768G11  C0CW52577   2.494   8.081  10.343
   768G11  C0CV52578   2.422   8.131  10.239
   768G11  C0D452579   2.447   8.260  10.191
   768G11  C0CU52580   2.317   8.057  10.190
   768G11  C0CT52581   2.280   7.926  10.235
   768G11  C0CS52582   2.356   7.878  10.344
   768G11  C0D652583   2.255   8.111  10.082
   768G11  C0EC52584   2.279   8.236  10.027
   768G11  C07X52585   2.195   8.286   9.931
   768G11  C0DL52586   2.153   8.033  10.028
   768G11  C0DK52587   2.081   8.081   9.922
   768G11  C0DN52588   1.986   7.992   9.893
   768G11  C0D852589   2.103   7.910  10.071
   768G11  C08W52590   2.788   8.330  10.520
   768G11  C0CQ52591   2.777   8.195  10.569
   768G11  C09352592   2.541   8.337  10.246
   768G11  C09252593   2.376   8.314  10.083
   768G11  C08552594   2.495   8.656  10.079
   768G11  C07S52595   2.598   8.869  10.134
   768G11  C06F52596   2.603   9.133  10.084
   768G11  C07O52597   2.350   8.896   9.850
   768G11  C07N52598   2.256   8.817   9.786
   768G11  C05D52599   2.442   9.237   9.884
   768G11  C05C52600   2.534   9.313   9.954
   768G11  C05N52601   2.514   9.441   9.915
   768G11  C05M52602   2.220   9.556   9.715
   768G11  C05I52603   2.038   9.504   9.569
   768G11  C06152604   1.832   9.604   9.405
   768G11  C02Q52605   1.698   9.793   9.343
   768G11  C02O52606   1.636  10.071   9.425
   768G11  C03Q52607   1.936   9.912   9.547
   768G11  C03O52608   2.049   9.992   9.744
   768G11  C03L52609   2.003  10.277   9.949
   768G11  C02S52610   1.786  10.231   9.649
   768G11  C02T52611   1.650  10.442   9.769
   768G11  C03K52612   1.943  10.397  10.011
   768G11  C03I52613   1.592  10.555   9.821
   768G11  C03G52614   1.474  10.784   9.940
   768G11  H00D52615   1.438  10.877   9.980
   768G11  C03J52616   1.797  10.620  10.125
   768G11  C03W52617   1.873  10.736  10.370
   768G11  C04I52618   2.061  10.592  10.384
   768G11  C04K52619   2.282  10.483  10.507
   768G11  C04N52620   2.388  10.419  10.565
   768G11  C04X52621   2.534  10.221  10.570
   768G11  C05052622   2.690  10.023  10.584
   768G11  C05W52623   2.594   9.966  10.318
   768G11  C05S52624   2.843   9.595  10.478
   768G11  C05R52625   2.693   9.716  10.176
   768G11  C05O52626   2.581   9.539   9.990
   768G11  C05B52627   2.615   9.263  10.057
   768G11  C05A52628   2.806   9.422  10.316
   768G11  C07R52629   2.689   9.085  10.186
   768G11  C08N52630   2.843   8.970  10.399
   768G11  C08M52631   2.932   8.910  10.488
   768G11  C08L52632   3.018   8.990  10.569
   768G11  C09152633   2.845   9.444  10.454
   768G11  C09K52634   2.951   9.371  10.787
   768G11  H00M52635   2.874   9.435  10.827
   768G11  C08K52636   3.002   9.131  10.564
   768G11  C09J52637   3.045   9.300  10.867
   768G11  C09I52638   3.075   9.252  11.001
   768G11  C09L52639   3.054   9.313  11.127
   768G11  H00N52640   3.008   9.410  11.137
   768G11  C09Q52641   3.092   9.240  11.236
   768G11  H00O52642   3.059   9.278  11.332
   768G11  O00B52643   3.152   9.113  11.228
   768G11  C09G52644   3.166   9.047  11.108
   768G11  C09F52645   3.199   8.910  11.119
   768G11  O00A52646   3.216   8.871  11.248
   768G11  C09P52647   3.235   8.736  11.271
   768G11  H00P52648   3.317   8.703  11.334
   768G11  C09O52649   3.182   8.635  11.183
   768G11  C09D52650   3.190   8.671  11.045
   768G11  C09C52651   3.178   8.581  10.923
   768G11  C09N52652   3.127   8.448  10.911
   768G11  C09T52653   3.070   8.371  11.021
   768G11  C09S52654   3.097   8.399  11.166
   768G11  C0CP52655   3.055   8.279  11.230
   768G11  C0CN52656   3.010   8.185  11.139
   768G11  C0CO52657   2.961   8.062  11.196
   768G11  H01452658   2.912   7.989  11.133
   768G11  C0CZ52659   2.971   8.054  11.335
   768G11  H01552660   2.938   7.961  11.378
   768G11  C0D052661   3.025   8.150  11.423
   768G11  C0G552662   3.035   8.144  11.572
   768G11  H01F52663   3.000   8.061  11.631
   768G11  C0G452664   3.079   8.253  11.642
   768G11  H01G52665   3.076   8.238  11.748
   768G11  O00H52666   3.124   8.371  11.585
   768G11  C0D252667   3.114   8.374  11.445
   768G11  C09V52668   3.155   8.494  11.378
   768G11  H00Q52669   3.197   8.569  11.443
   768G11  C0D152670   3.065   8.272  11.368
   768G11  C09R52671   3.141   8.510  11.237
   768G11  C09H52672   3.136   9.127  10.991
   768G11  C09E52673   3.205   8.814  11.009
   768G11  C09B52674   3.193   8.620  10.792
   768G11  C08Z52675   3.098   8.925  10.668
   768G11  C08O52676   2.937   8.765  10.502
   768G11  C09A52677   3.155   8.518  10.701
   768G11  C08S52678   2.867   8.446  10.533
   768G11  C09952679   3.122   8.403  10.776
   768G11  C09U52680   3.027   8.236  11.004
   768G11  C0BO52681   2.878   7.823  10.855
   768G11  C0CL52682   2.846   8.147  10.680
   768G11  C0D352683   2.676   8.113  10.505
   768G11  C0D552684   2.463   7.955  10.401
   768G11  C0BR52685   2.679   7.818  10.721
   768G11  C0BQ52686   2.762   7.758  10.816
   768G11  C0BL52687   2.944   7.622  10.972
   768G11  C0AF52688   2.888   7.376  11.078
   768G11  C0BH52689   2.568   7.456  10.905
   768G11  C0BG52690   2.457   7.388  10.868
   768G11  C0BD52691   2.502   7.214  11.029
   768G11  C0AG52692   2.848   7.262  11.138
   768G11  C0AI52693   2.927   7.064  11.238
   768G11  C0AV52694   2.897   6.797  11.266
   768G11  C0BB52695   2.543   6.914  11.239
   768G11  O00C52696   2.737   6.613  11.233
   768G11  C0BC52697   2.434   6.830  11.214
   768G11  C0B952698   2.473   7.089  11.089
   768G11  O00E52699   2.177   7.003  10.892
   768G11  C0CA52700   2.090   7.056  10.807
   768G11  O00F52701   1.991   6.983  10.777
   768G11  C0BF52702   2.424   7.270  10.930
   768G11  C0C552703   2.117   7.183  10.750
   768G11  C0C452704   2.028   7.235  10.656
   768G11  H01152705   1.935   7.184  10.635
   768G11  C0C852706   2.380   7.441  10.763
   768G11  C0C252707   2.067   7.357  10.589
   768G11  C0C352708   1.997   7.420  10.483
   768G11  C0DY52709   1.875   7.372  10.424
   768G11  H01652710   1.807   7.291  10.446
   768G11  C0DX52711   1.869   7.450  10.303
   768G11  C0DW52712   1.801   7.392  10.192
   768G11  C0BY52713   2.342   7.605  10.590
   768G11  C0DB52714   2.050   7.525  10.405
   768G11  C0CC52715   2.316   7.765  10.409
   768G11  C0D752716   2.172   7.848  10.181
   768G11  C0DZ52717   1.973   7.556  10.291
   768G11  C0DM52718   1.988   7.888   9.990
   768G11  C0DQ52719   1.826   7.573  10.020
   768G11  C0DV52720   1.775   7.454  10.068
   768G11  C0E052721   1.747   7.256  10.178
   768G11  C0FO52722   1.689   7.115   9.851
   768G11  C0E352723   1.820   7.132  10.179
   768G11  H01752724   1.911   7.113  10.234
   768G11  C0GV52725   1.786   7.012   9.837
   768G11  C0ES52726   1.677   7.207   9.743
   768G11  C0GQ52727   1.885   7.035   9.492
   768G11  C0FJ52728   1.673   7.238   9.266
   768G11  C0ED52729   1.634   7.364   9.508
   768G11  C0ER52730   1.371   7.567   9.363
   768G11  C0EP52731   1.462   7.767   9.417
   768G11  C0E652732   1.649   7.561   9.676
   768G11  C0DE52733   1.754   7.840   9.761
   768G11  C0EA52734   1.572   7.993   9.465
   768G11  C0DF52735   1.768   7.976   9.776
   768G11  C08052736   1.808   8.240   9.534
   768G11  C0DO52737   1.895   8.036   9.805
   768G11  C0DJ52738   2.096   8.213   9.873
   768G11  C07K52739   1.956   8.449   9.612
   768G11  C07W52740   2.218   8.412   9.876
   768G11  C08352741   2.253   8.682   9.805
   768G11  C07J52742   1.967   8.586   9.589
   768G11  C06O52743   1.982   8.860   9.544
   768G11  C06M52744   2.165   8.875   9.700
   778G11  C07152745   7.344   7.937  13.858
   778G11  C07L52746   7.267   7.872  13.957
   778G11  C07M52747   7.212   7.742  13.932
   778G11  C07Y52748   7.151   7.676  14.036
   778G11  C08152749   7.133   7.736  14.161
   778G11  C08252750   7.047   7.667  14.253
   778G11  C0DI52751   6.984   7.708  14.385
   778G11  C0DH52752   6.999   7.822  14.466
   778G11  C0DG52753   6.919   7.817  14.584
   778G11  C0E952754   6.939   7.862  14.722
   778G11  C0E852755   6.855   7.757  14.793
   778G11  C0E752756   6.781   7.774  14.922
   778G11  C0EB52757   6.812   7.889  15.003
   778G11  C0EF52758   6.753   7.924  15.127
   778G11  C0EE52759   6.613   7.937  15.152
   778G11  C0FD52760   6.557   8.061  15.193
   778G11  C0FE52761   6.627   8.190  15.202
   778G11  H01B52762   6.724   8.200  15.155
   778G11  C0FF52763   6.574   8.296  15.273
   778G11  H01A52764   6.636   8.384  15.273
   778G11  C0FG52765   6.448   8.284  15.327
   778G11  H01852766   6.411   8.371  15.381
   778G11  C0FH52767   6.368   8.171  15.307
   778G11  C0FI52768   6.229   8.164  15.344
   778G11  H01952769   6.179   8.248  15.390
   778G11  O00K52770   6.147   8.052  15.325
   778G11  C0FL52771   6.210   7.941  15.279
   778G11  C0FK52772   6.350   7.936  15.237
   778G11  C0FM52773   6.408   7.819  15.182
   778G11  C0FN52774   6.328   7.701  15.189
   778G11  C0FP52775   6.199   7.708  15.232
   778G11  C0GO52776   6.114   7.598  15.222
   778G11  C0GN52777   5.972   7.594  15.213
   778G11  C0GR52778   5.915   7.724  15.229
   778G11  C0GS52779   5.771   7.728  15.230
   778G11  H01Q52780   5.720   7.823  15.233
   778G11  C0GT52781   5.691   7.614  15.205
   778G11  H01O52782   5.585   7.631  15.191
   778G11  C0GU52783   5.751   7.490  15.202
   778G11  H01P52784   5.688   7.403  15.191
   778G11  O00L52785   5.993   7.837  15.264
   778G11  C0GM52786   5.894   7.478  15.204
   778G11  C0GL52787   5.967   7.358  15.185
   778G11  H01R52788   5.923   7.265  15.153
   778G11  C0GK52789   6.111   7.354  15.186
   778G11  C0GP52790   6.209   7.255  15.155
   778G11  C0E252791   6.339   7.322  15.201
   778G11  C0E152792   6.434   7.280  15.106
   778G11  C0DU52793   6.517   7.354  15.017
   778G11  C0DT52794   6.567   7.484  15.029
   778G11  C0E452795   6.509   7.578  15.110
   778G11  C0E552796   6.582   7.695  15.079
   778G11  C0DS52797   6.653   7.545  14.938
   778G11  C0DR52798   6.692   7.468  14.830
   778G11  C0DD52799   6.781   7.504  14.727
   778G11  C0DC52800   6.769   7.390  14.631
   778G11  C0DP52801   6.683   7.283  14.679
   778G11  C0DA52802   6.659   7.151  14.614
   778G11  C0D952803   6.717   7.083  14.492
   778G11  C0CR52804   6.693   6.943  14.467
   778G11  C0C052805   6.619   6.864  14.558
   778G11  C0BZ52806   6.623   6.726  14.557
   778G11  C0C152807   6.567   6.657  14.666
   778G11  C0C752808   6.587   6.519  14.676
   778G11  C0C652809   6.544   6.447  14.789
   778G11  C0C952810   6.586   6.314  14.810
   778G11  C0B852811   6.559   6.248  14.934
   778G11  C0B752812   6.606   6.120  14.959
   778G11  C0B652813   6.585   6.025  15.070
   778G11  C0B552814   6.460   6.002  15.128
   778G11  H00Z52815   6.374   6.067  15.131
   778G11  C0B452816   6.458   5.862  15.171
   778G11  H01052817   6.373   5.800  15.194
   778G11  C0B352818   6.589   5.806  15.145
   778G11  C0AP52819   6.631   5.678  15.083
   778G11  C0AQ52820   6.726   5.725  14.985
   778G11  C0AR52821   6.742   5.652  14.864
   778G11  C0AS52822   6.808   5.724  14.767
   778G11  C0AT52823   6.797   5.864  14.760
   778G11  C0BA52824   6.750   5.935  14.868
   778G11  C0AU52825   6.812   5.932  14.639
   778G11  C0BE52826   6.780   6.061  14.630
   778G11  C0BI52827   6.789   6.124  14.504
   778G11  C0BJ52828   6.829   6.048  14.390
   778G11  C0BK52829   6.859   6.108  14.270
   778G11  C0BW52830   6.841   6.247  14.261
   778G11  C0BV52831   6.784   6.316  14.370
   778G11  C0BU52832   6.765   6.452  14.361
   778G11  C0BX52833   6.693   6.520  14.462
   778G11  C0BT52834   6.810   6.525  14.249
   778G11  C0CD52835   6.799   6.664  14.246
   778G11  C0CB52836   6.740   6.731  14.348
   778G11  C0CE52837   6.851   6.730  14.134
   778G11  C0CK52838   6.910   6.660  14.028
   778G11  C0BS52839   6.913   6.520  14.024
   778G11  C0CJ52840   6.970   6.449  13.918
   778G11  C0BP52841   6.968   6.309  13.922
   778G11  C0CI52842   7.015   6.235  13.815
   778G11  C0CH52843   6.983   6.099  13.813
   778G11  H01252844   7.019   6.049  13.724
   778G11  C0BN52845   6.945   6.034  13.928
   778G11  C0CG52846   6.939   5.894  13.937
   778G11  C0CF52847   6.955   5.816  13.816
   778G11  H01352848   6.958   5.856  13.716
   778G11  O00G52849   6.967   5.675  13.823
   778G11  C0AA52850   6.934   5.610  13.944
   778G11  C0A952851   6.912   5.475  13.935
   778G11  H00U52852   6.918   5.415  13.845
   778G11  C0A852853   6.873   5.407  14.051
   778G11  H00V52854   6.847   5.303  14.035
   778G11  C0A752855   6.853   5.468  14.177
   778G11  C0A652856   6.870   5.615  14.178
   778G11  C0A552857   6.862   5.693  14.293
   778G11  C0A452858   6.845   5.634  14.422
   778G11  C0A352859   6.809   5.507  14.482
   778G11  C0A252860   6.776   5.390  14.413
   778G11  C0A152861   6.751   5.269  14.481
   778G11  C0A052862   6.709   5.226  14.617
   778G11  C09Z52863   6.692   5.089  14.628
   778G11  C09Y52864   6.655   5.034  14.751
   778G11  H00Y52865   6.632   4.929  14.761
   778G11  C09X52866   6.622   5.117  14.858
   778G11  C09W52867   6.582   5.050  14.976
   778G11  H00R52868   6.575   4.943  14.989
   778G11  C0AX52869   6.551   5.131  15.086
   778G11  H00S52870   6.510   5.082  15.173
   778G11  C0AW52871   6.552   5.271  15.082
   778G11  H00T52872   6.541   5.331  15.171
   778G11  C0AN52873   6.601   5.333  14.968
   778G11  C0AO52874   6.633   5.472  14.963
   778G11  C0AM52875   6.634   5.255  14.851
   778G11  C0B252876   6.724   4.988  14.534
   778G11  O00D52877   6.727   4.867  14.556
   778G11  C0B152878   6.760   5.030  14.401
   778G11  H00W52879   6.782   4.956  14.325
   778G11  C0AL52880   6.681   5.315  14.727
   778G11  C0AK52881   6.719   5.450  14.735
   778G11  C0B052882   6.773   5.170  14.385
   778G11  C0AZ52883   6.812   5.229  14.264
   778G11  H00X52884   6.838   5.171  14.176
   778G11  C0AJ52885   6.786   5.523  14.626
   778G11  C0AH52886   6.848   5.721  14.529
   778G11  C0AE52887   6.870   5.834  14.286
   778G11  C0AD52888   6.891   5.897  14.168
   778G11  C0AY52889   6.812   5.372  14.279
   778G11  C0AB52890   6.908   5.689  14.061
   778G11  C0AC52891   6.915   5.823  14.054
   778G11  C0BM52892   6.912   6.107  14.039
   778G11  C0CM52893   7.102   6.300  13.723
   778G11  C09M52894   7.084   6.438  13.694
   778G11  C09852895   7.116   6.491  13.563
   778G11  C08R52896   7.145   6.621  13.505
   778G11  C08Q52897   7.159   6.631  13.364
   778G11  C08P52898   7.241   6.716  13.276
   778G11  C08Y52899   7.294   6.652  13.162
   778G11  C09752900   7.298   6.511  13.156
   778G11  C09652901   7.423   6.473  13.114
   778G11  C09052902   7.478   6.594  13.045
   778G11  C09552903   7.606   6.606  12.988
   778G11  C09452904   7.660   6.719  12.925
   778G11  C08J52905   7.610   6.850  12.917
   778G11  C08I52906   7.729   6.934  12.910
   778G11  C08H52907   7.708   7.062  12.974
   778G11  C08G52908   7.579   7.043  13.045
   778G11  C08F52909   7.495   7.125  13.135
   778G11  C08E52910   7.518   7.266  13.141
   778G11  C05952911   7.583   7.352  13.043
   778G11  C05852912   7.567   7.495  13.045
   778G11  C05752913   7.626   7.577  12.951
   778G11  C05652914   7.694   7.514  12.839
   778G11  C05552915   7.676   7.384  12.813
   778G11  C05452916   7.792   7.345  12.737
   778G11  C05352917   7.879   7.460  12.715
   778G11  C05252918   8.015   7.471  12.658
   778G11  C05152919   8.081   7.350  12.608
   778G11  C05U52920   8.043   7.211  12.631
   778G11  C05T52921   7.934   7.147  12.706
   778G11  C06K52922   7.934   7.013  12.649
   778G11  H00J52923   7.852   6.951  12.684
   778G11  C06L52924   8.036   6.992  12.552
   778G11  H00I52925   8.042   6.907  12.486
   778G11  C05V52926   8.098   7.117  12.535
   778G11  C06J52927   8.209   7.145  12.459
   778G11  H00K52928   8.241   7.057  12.407
   778G11  C05X52929   8.266   7.270  12.458
   778G11  C06I52930   8.385   7.303  12.391
   778G11  H00L52931   8.438   7.228  12.335
   778G11  C04Z52932   8.442   7.437  12.377
   778G11  C06H52933   8.564   7.471  12.296
   778G11  H00H52934   8.606   7.400  12.226
   778G11  C04Y52935   8.622   7.603  12.307
   778G11  C06G52936   8.736   7.634  12.229
   778G11  O00952937   8.773   7.569  12.130
   778G11  O00852938   8.818   7.745  12.268
   778G11  C04P52939   8.767   7.838  12.358
   778G11  C04J52940   8.833   7.963  12.387
   778G11  C04Q52941   8.959   8.018  12.341
   778G11  H00E52942   9.024   7.970  12.269
   778G11  C04M52943   9.005   8.153  12.372
   778G11  C04R52944   9.123   8.212  12.318
   778G11  H00F52945   9.190   8.153  12.258
   778G11  C04S52946   9.162   8.337  12.362
   778G11  H00G52947   9.255   8.384  12.335
   778G11  O00752948   9.090   8.414  12.449
   778G11  C03V52949   8.968   8.359  12.491
   778G11  C03U52950   8.892   8.441  12.567
   778G11  O00652951   8.946   8.558  12.597
   778G11  C03F52952   8.886   8.642  12.684
   778G11  C03E52953   8.764   8.602  12.750
   778G11  C03D52954   8.707   8.480  12.715
   778G11  C03C52955   8.594   8.435  12.782
   778G11  C03B52956   8.548   8.523  12.883
   778G11  C03A52957   8.432   8.482  12.950
   778G11  C03952958   8.361   8.354  12.920
   778G11  C03852959   8.243   8.367  13.009
   778G11  C03752960   8.258   8.495  13.073
   778G11  C03652961   8.173   8.536  13.161
   778G11  C02R52962   8.171   8.645  13.239
   778G11  C03552963   8.051   8.633  13.308
   778G11  C03R52964   7.978   8.527  13.267
   778G11  C03S52965   7.887   8.461  13.349
   778G11  C04952966   7.853   8.332  13.316
   778G11  C04852967   7.925   8.271  13.208
   778G11  C03P52968   8.040   8.329  13.141
   778G11  C04752969   7.866   8.149  13.169
   778G11  C04652970   7.901   8.066  13.062
   778G11  C04552971   8.013   8.077  12.976
   778G11  C03T52972   8.124   8.164  12.973
   778G11  C04452973   8.209   8.129  12.858
   778G11  C04352974   8.139   8.019  12.801
   778G11  C04252975   8.197   7.961  12.692
   778G11  C04152976   8.315   8.052  12.680
   778G11  C04052977   8.424   8.028  12.596
   778G11  C03Z52978   8.546   8.109  12.592
   778G11  C04H52979   8.639   8.026  12.525
   778G11  C04G52980   8.574   7.906  12.497
   778G11  C03N52981   8.600   8.231  12.645
   778G11  C03Y52982   8.720   8.267  12.583
   778G11  C03X52983   8.802   8.185  12.499
   778G11  C04F52984   8.443   7.906  12.522
   778G11  C04E52985   8.375   7.778  12.519
   778G11  C04O52986   8.438   7.671  12.454
   778G11  C04D52987   8.248   7.743  12.569
   778G11  C04V52988   8.200   7.611  12.571
   778G11  C04W52989   8.266   7.501  12.516
   778G11  C04C52990   8.161   7.830  12.644
   778G11  C04L52991   8.055   7.728  12.685
   778G11  C04U52992   7.949   7.766  12.775
   778G11  C05Q52993   7.838   7.695  12.808
   778G11  C05P52994   7.768   7.757  12.905
   778G11  C04T52995   7.832   7.874  12.936
   778G11  C04B52996   7.943   7.885  12.859
   778G11  C03M52997   8.320   8.160  12.778
   778G11  C04A52998   8.031   7.989  12.873
   778G11  C05H52999   7.809   7.967  13.042
   778G11  C05G53000   7.715   7.973  13.148
   778G11  C05F53001   7.600   7.898  13.160
   778G11  C05E53002   7.546   7.879  13.292
   778G11  C05L53003   7.549   7.946  13.419
   778G11  C05K53004   7.605   8.075  13.437
   778G11  C05J53005   7.698   8.142  13.352
   778G11  C06653006   7.574   8.139  13.562
   778G11  C06553007   7.496   8.073  13.663
   778G11  C06453008   7.453   7.941  13.639
   778G11  C06N53009   7.471   8.128  13.788
   778G11  C06953010   7.525   8.254  13.821
   778G11  C06P53011   7.503   8.312  13.945
   778G11  C06R53012   7.568   8.432  13.982
   778G11  C06B53013   7.641   8.501  13.892
   778G11  C06S53014   7.705   8.618  13.929
   778G11  C02G53015   7.788   8.682  13.838
   778G11  C02F53016   7.853   8.799  13.874
   778G11  C02753017   7.836   8.853  13.996
   778G11  C02653018   7.905   8.970  14.037
   778G11  C00E53019   7.893   9.021  14.168
   778G11  C00D53020   7.972   9.128  14.201
   778G11  C00C53021   7.964   9.170  14.332
   778G11  C00B53022   7.894   9.102  14.429
   778G11  C01553023   7.816   8.994  14.392
   778G11  C07F53024   7.749   8.928  14.485
   778G11  C07E53025   7.679   8.813  14.450
   778G11  C06W53026   7.677   8.769  14.317
   778G11  C06V53027   7.745   8.841  14.221
   778G11  C06X53028   7.605   8.659  14.275
   778G11  C07B53029   7.529   8.585  14.368
   778G11  C07C53030   7.530   8.628  14.501
   778G11  C0FU53031   7.466   8.550  14.599
   778G11  C0F753032   7.471   8.588  14.730
   778G11  C0F653033   7.393   8.514  14.825
   778G11  C0F853034   7.401   8.550  14.957
   778G11  C0F953035   7.344   8.465  15.052
   778G11  C0FA53036   7.359   8.493  15.186
   778G11  C0FZ53037   7.445   8.593  15.220
   778G11  C0G053038   7.474   8.615  15.359
   778G11  C0GD53039   7.404   8.545  15.458
   778G11  C0FC53040   7.309   8.448  15.420
   778G11  C0GH53041   7.229   8.387  15.517
   778G11  C0EY53042   7.132   8.295  15.477
   778G11  C0EX53043   7.045   8.231  15.572
   778G11  C0EW53044   6.938   8.155  15.530
   778G11  C0FR53045   6.843   8.099  15.620
   778G11  H01D53046   6.759   8.036  15.591
   778G11  C0FS53047   6.860   8.116  15.755
   778G11  H01C53048   6.800   8.069  15.832
   778G11  C0GJ53049   6.973   8.192  15.799
   778G11  H01N53050   6.997   8.218  15.901
   778G11  C0EV53051   6.926   8.130  15.391
   778G11  C0FT53052   6.831   8.032  15.344
   778G11  H01E53053   6.755   7.980  15.401
   778G11  C0EU53054   7.015   8.184  15.297
   778G11  C0ET53055   7.012   8.140  15.170
   778G11  C0EI53056   7.092   8.189  15.067
   778G11  C0F153057   7.186   8.291  15.105
   778G11  C0F053058   7.197   8.320  15.243
   778G11  C0EH53059   7.087   8.142  14.931
   778G11  C0EG53060   7.006   8.035  14.892
   778G11  C0EJ53061   7.166   8.214  14.839
   778G11  C0F353062   7.244   8.323  14.879
   778G11  C0EK53063   7.165   8.177  14.705
   778G11  C0EL53064   7.097   8.055  14.665
   778G11  C0EM53065   7.132   8.020  14.526
   778G11  C0EN53066   7.205   8.107  14.444
   778G11  C07I53067   7.221   8.058  14.320
   778G11  C07453068   7.294   8.120  14.224
   778G11  C07353069   7.308   8.061  14.102
   778G11  C07253070   7.376   8.124  14.006
   778G11  C07553071   7.347   8.239  14.260
   778G11  C07653072   7.331   8.290  14.389
   778G11  C07853073   7.393   8.403  14.429
   778G11  C07G53074   7.413   8.308  14.166
   778G11  C07053075   7.471   8.422  14.204
   778G11  C07Z53076   7.164   7.926  14.309
   778G11  C07753077   7.261   8.223  14.486
   778G11  C0EO53078   7.237   8.260  14.616
   778G11  C0F453079   7.313   8.371  14.652
   778G11  C0EQ53080   6.924   8.046  15.129
   778G11  C0FQ53081   7.057   8.260  15.708
   778G11  C0GI53082   7.157   8.349  15.746
   778G11  H01L53083   7.172   8.369  15.851
   778G11  C0EZ53084   7.110   8.269  15.340
   778G11  C0GG53085   7.238   8.417  15.654
   778G11  C0GF53086   7.338   8.508  15.693
   778G11  H01M53087   7.347   8.531  15.798
   778G11  C0GE53088   7.426   8.565  15.595
   778G11  H01K53089   7.497   8.634  15.638
   778G11  O00J53090   7.562   8.712  15.393
   778G11  C0GA53091   7.626   8.783  15.298
   778G11  C0G953092   7.725   8.872  15.345
   778G11  H01H53093   7.753   8.873  15.449
   778G11  C0G853094   7.794   8.959  15.257
   778G11  C0G753095   7.901   9.045  15.293
   778G11  H01I53096   7.941   9.051  15.394
   778G11  O00I53097   7.963   9.137  15.206
   778G11  C0G653098   7.937   9.105  15.074
   778G11  H01J53099   8.013   9.144  15.007
   778G11  C02D53100   7.836   9.016  15.028
   778G11  C02C53101   7.804   9.008  14.894
   778G11  C01753102   7.862   9.097  14.799
   778G11  C01653103   7.838   9.068  14.661
   778G11  O00153104   7.912   9.217  14.825
   778G11  C01853105   8.001   9.277  14.743
   778G11  C00953106   8.000   9.248  14.608
   778G11  C00853107   8.077   9.310  14.500
   778G11  C00753108   8.184   9.407  14.492
   778G11  C00653109   8.261   9.435  14.613
   778G11  C00553110   8.392   9.477  14.612
   778G11  C00453111   8.483   9.504  14.501
   778G11  C00353112   8.487   9.479  14.353
   778G11  C00253113   8.610   9.500  14.278
   778G11  C00P53114   8.606   9.459  14.144
   778G11  C00O53115   8.724   9.462  14.069
   778G11  C00N53116   8.740   9.421  13.937
   778G11  C01053117   8.858   9.428  13.869
   778G11  C01153118   8.875   9.378  13.740
   778G11  C01Q53119   8.997   9.384  13.673
   778G11  C01U53120   9.115   9.438  13.732
   778G11  C01253121   9.101   9.481  13.867
   778G11  H00053122   9.186   9.509  13.927
   778G11  C01V53123   9.230   9.448  13.654
   778G11  H00753124   9.316   9.506  13.681
   778G11  O00553125   9.241   9.404  13.528
   778G11  C01W53126   9.131   9.357  13.470
   778G11  C03153127   9.133   9.334  13.333
   778G11  C03253128   9.009   9.317  13.265
   778G11  H00A53129   9.005   9.322  13.158
   778G11  C03353130   8.893   9.292  13.335
   778G11  H00B53131   8.806   9.272  13.274
   778G11  C01O53132   8.896   9.291  13.474
   778G11  C01N53133   8.777   9.266  13.545
   778G11  C01M53134   8.665   9.184  13.490
   778G11  C01L53135   8.627   9.081  13.384
   778G11  C01K53136   8.498   9.044  13.417
   778G11  C01Y53137   8.418   8.946  13.367
   778G11  C02I53138   8.469   8.874  13.261
   778G11  C02N53139   8.386   8.768  13.205
   778G11  C02M53140   8.442   8.690  13.100
   778G11  C02L53141   8.558   8.726  13.035
   778G11  C02K53142   8.634   8.835  13.080
   778G11  C02U53143   8.749   8.867  13.010
   778G11  C02V53144   8.781   8.800  12.890
   778G11  C03H53145   8.886   8.846  12.810
   778G11  H00C53146   8.940   8.940  12.814
   778G11  C02W53147   8.844   8.942  13.074
   778G11  C02X53148   8.806   8.994  13.196
   778G11  C02Y53149   8.930   9.021  13.251
   778G11  H00853150   8.946   9.051  13.354
   778G11  C02Z53151   9.033   9.017  13.137
   778G11  O00453152   9.140   9.068  13.129
   778G11  O00353153   8.974   8.954  13.041
   778G11  C02J53154   8.596   8.908  13.201
   778G11  C01Z53155   8.293   8.927  13.430
   778G11  C02053156   8.254   8.993  13.544
   778G11  C01I53157   8.337   9.090  13.593
   778G11  C01H53158   8.320   9.153  13.712
   778G11  C00K53159   8.414   9.239  13.763
   778G11  C01S53160   8.531   9.258  13.696
   778G11  C01453161   8.647   9.319  13.749
   778G11  C00J53162   8.401   9.290  13.889
   778G11  C00I53163   8.293   9.257  13.967
   778G11  C00H53164   8.194   9.172  13.914
   778G11  C00G53165   8.081   9.132  13.988
   778G11  C00S53166   8.277   9.307  14.090
   778G11  C00T53167   8.162   9.273  14.156
   778G11  C00U53168   8.150   9.324  14.284
   778G11  C00R53169   8.383   9.373  14.153
   778G11  C00L53170   8.510   9.357  13.950
   778G11  C02853171   8.209   9.116  13.792
   778G11  C02353172   8.125   9.016  13.749
   778G11  C02453173   8.021   8.972  13.824
   778G11  C02153174   8.143   8.955  13.624
   778G11  C02253175   8.074   8.847  13.588
   778G11  C02H53176   7.973   8.800  13.670
   778G11  C03053177   7.899   8.685  13.627
   778G11  C03453178   7.923   8.630  13.506
   778G11  C02P53179   8.107   8.786  13.468
   778G11  C02B53180   8.220   8.818  13.389
   778G11  C01J53181   8.447   9.125  13.515
   778G11  C01X53182   8.681   9.004  13.267
   778G11  C01T53183   8.548   9.200  13.566
   778G11  H00953184   9.230   9.348  13.288
   778G11  C01P53185   9.006   9.346  13.541
   778G11  C01R53186   8.764   9.322  13.674
   778G11  C00Z53187   8.975   9.474  13.934
   778G11  O00053188   8.964   9.510  14.063
   778G11  C00M53189   8.632   9.361  13.879
   778G11  C00Y53190   8.844   9.511  14.128
   778G11  C01353191   8.840   9.560  14.258
   778G11  H00153192   8.932   9.602  14.295
   778G11  C00Q53193   8.498   9.401  14.084
   778G11  C00153194   8.724   9.554  14.337
   778G11  C00053195   8.712   9.601  14.472
   778G11  H00653196   8.801   9.645  14.513
   778G11  C00W53197   8.375   9.414  14.291
   778G11  C01G53198   8.596   9.575  14.553
   778G11  H00553199   8.607   9.614  14.653
   778G11  C01C53200   8.435   9.482  14.753
   778G11  H00253201   8.533   9.502  14.794
   778G11  C01B53202   8.321   9.448  14.834
   778G11  C01D53203   8.315   9.439  14.979
   778G11  H00353204   8.403   9.476  15.029
   778G11  C01E53205   8.198   9.392  15.028
   778G11  H00453206   8.177   9.399  15.133
   778G11  O00253207   8.085   9.356  14.948
   778G11  C01A53208   8.218   9.408  14.749
   778G11  C00V53209   8.245   9.394  14.358
   778G11  C01953210   8.105   9.348  14.808
   778G11  C02E53211   7.719   8.903  14.852
   778G11  C0FX53212   7.648   8.829  14.943
   778G11  C0FW53213   7.553   8.731  14.900
   778G11  C0GB53214   7.677   8.844  15.072
   778G11  C0G353215   7.696   8.884  14.714
   778G11  C07H53216   7.606   8.786  14.675
   778G11  C0GC53217   7.768   8.939  15.122
   778G11  C0G253218   7.601   8.772  15.163
   778G11  C0G153219   7.504   8.679  15.130
   778G11  C0FB53220   7.292   8.416  15.285
   778G11  C0F253221   7.265   8.358  15.015
   778G11  C0FY53222   7.486   8.650  14.997
   778G11  C0F553223   7.312   8.404  14.785
   778G11  C0FV53224   7.540   8.699  14.765
   778G11  C07953225   7.388   8.444  14.560
   778G11  C07A53226   7.462   8.471  14.332
   778G11  C06Y53227   7.615   8.608  14.148
   778G11  C07D53228   7.605   8.743  14.543
   778G11  C01F53229   7.762   8.964  14.620
   778G11  C00A53230   7.905   9.148  14.565
   778G11  C00X53231   8.049   9.273  14.368
   778G11  C00F53232   8.064   9.187  14.113
   778G11  C02953233   7.814   8.956  14.260
   778G11  C02553234   7.997   9.029  13.950
   778G11  C06U53235   7.752   8.791  14.089
   778G11  C02A53236   7.947   8.858  13.786
   778G11  C05Y53237   7.812   8.623  13.714
   778G11  C05Z53238   7.742   8.506  13.676
   778G11  C06053239   7.767   8.453  13.549
   778G11  C06253240   7.712   8.329  13.510
   778G11  C06T53241   7.692   8.671  14.055
   778G11  C06A53242   7.664   8.444  13.766
   778G11  C06Z53243   7.548   8.486  14.112
   778G11  C06Q53244   7.419   8.253  14.038
   778G11  C06853245   7.603   8.321  13.726
   778G11  C06753246   7.631   8.265  13.597
   778G11  C06353247   7.475   7.879  13.520
   778G11  C06C53248   7.416   7.750  13.503
   778G11  C06D53249   7.434   7.679  13.389
   778G11  C06E53250   7.415   7.544  13.370
   778G11  C07Q53251   7.344   7.478  13.464
   778G11  C07P53252   7.307   7.548  13.577
   778G11  C07T53253   7.233   7.486  13.669
   778G11  C07U53254   7.206   7.548  13.789
   778G11  C07V53255   7.139   7.482  13.890
   778G11  C08453256   7.101   7.352  13.867
   778G11  C08C53257   7.128   7.290  13.750
   778G11  C08B53258   7.102   7.154  13.734
   778G11  C08A53259   7.146   7.087  13.623
   778G11  C08953260   7.219   7.145  13.524
   778G11  C08853261   7.267   7.069  13.417
   778G11  C08753262   7.346   7.131  13.318
   778G11  C08653263   7.372   7.269  13.332
   778G11  C08X53264   7.246   6.930  13.414
   778G11  C08T53265   7.183   6.864  13.530
   778G11  C08D53266   7.240   7.284  13.538
   778G11  C08U53267   7.138   6.949  13.625
   778G11  C08V53268   7.069   6.885  13.726
   778G11  C0CY53269   7.027   6.947  13.838
   778G11  C0CX53270   6.963   6.871  13.934
   778G11  C0CW53271   6.917   6.943  14.044
   778G11  C0CV53272   6.939   7.074  14.055
   778G11  C0D453273   7.006   7.146  13.955
   778G11  C0CU53274   6.904   7.138  14.168
   778G11  C0CT53275   6.832   7.073  14.271
   778G11  C0CS53276   6.807   6.937  14.257
   778G11  C0D653277   6.941   7.264  14.180
   778G11  C0EC53278   7.015   7.344  14.090
   778G11  C07X53279   7.046   7.474  14.107
   778G11  C0DL53280   6.896   7.335  14.289
   778G11  C0DK53281   6.927   7.465  14.309
   778G11  C0DN53282   6.876   7.498  14.432
   778G11  C0D853283   6.821   7.280  14.399
   778G11  C08W53284   7.073   6.745  13.709
   778G11  C0CQ53285   7.013   6.657  13.807
   778G11  C09353286   7.042   7.085  13.841
   778G11  C09253287   7.037   7.283  13.969
   778G11  C08553288   7.197   7.353  13.652
   778G11  C07S53289   7.310   7.346  13.439
   778G11  C06F53290   7.459   7.474  13.255
   778G11  C07O53291   7.348   7.683  13.601
   778G11  C07N53292   7.323   7.747  13.717
   778G11  C05D53293   7.491   7.749  13.280
   778G11  C05C53294   7.513   7.686  13.161
   778G11  C05N53295   7.589   7.773  13.087
   778G11  C05M53296   7.750   8.087  13.230
   778G11  C05I53297   7.750   8.266  13.390
   778G11  C06153298   7.862   8.518  13.467
   778G11  C02Q53299   8.028   8.686  13.432
   778G11  C02O53300   8.266   8.745  13.278
   778G11  C03Q53301   8.063   8.455  13.187
   778G11  C03O53302   8.132   8.276  13.048
   778G11  C03L53303   8.410   8.267  12.813
   778G11  C02S53304   8.374   8.566  13.045
   778G11  C02T53305   8.608   8.644  12.929
   778G11  C03K53306   8.534   8.307  12.748
   778G11  C03I53307   8.720   8.680  12.858
   778G11  C03G53308   8.936   8.770  12.702
   778G11  H00D53309   9.014   8.806  12.637
   778G11  C03J53310   8.766   8.394  12.619
   778G11  C03W53311   8.925   8.228  12.455
   778G11  C04I53312   8.768   8.055  12.474
   778G11  C04K53313   8.637   7.813  12.416
   778G11  C04N53314   8.564   7.696  12.392
   778G11  C04X53315   8.381   7.537  12.447
   778G11  C05053316   8.203   7.373  12.528
   778G11  C05W53317   8.082   7.591  12.637
   778G11  C05S53318   7.829   7.217  12.783
   778G11  C05R53319   7.806   7.563  12.777
   778G11  C05O53320   7.656   7.710  12.977
   778G11  C05B53321   7.512   7.547  13.154
   778G11  C05A53322   7.652   7.303  12.924
   778G11  C07R53323   7.452   7.336  13.243
   778G11  C08N53324   7.402   7.055  13.214
   778G11  C08M53325   7.369   6.914  13.203
   778G11  C08L53326   7.428   6.842  13.099
   778G11  C09153327   7.731   7.184  12.892
   778G11  C09K53328   7.851   6.848  12.930
   778G11  H00M53329   7.949   6.881  12.960
   778G11  C08K53330   7.529   6.908  13.023
   778G11  C09J53331   7.802   6.716  12.930
   778G11  C09I53332   7.836   6.590  12.975
   778G11  C09L53333   7.966   6.530  12.980
   778G11  H00N53334   8.055   6.582  12.948
   778G11  C09Q53335   7.967   6.399  13.025
   778G11  H00O53336   8.057   6.341  13.025
   778G11  O00B53337   7.848   6.326  13.056
   778G11  C09G53338   7.726   6.388  13.070
   778G11  C09F53339   7.627   6.302  13.121
   778G11  O00A53340   7.673   6.181  13.149
   778G11  C09P53341   7.588   6.091  13.206
   778G11  H00P53342   7.588   5.986  13.177
   778G11  C09O53343   7.486   6.145  13.296
   778G11  C09D53344   7.419   6.266  13.248
   778G11  C09C53345   7.300   6.332  13.305
   778G11  C09N53346   7.231   6.309  13.427
   778G11  C09T53347   7.281   6.231  13.533
   778G11  C09S53348   7.382   6.126  13.522
   778G11  C0CP53349   7.379   6.064  13.649
   778G11  C0CN53350   7.288   6.119  13.734
   778G11  C0CO53351   7.279   6.071  13.867
   778G11  H01453352   7.217   6.104  13.950
   778G11  C0CZ53353   7.364   5.971  13.903
   778G11  H01553354   7.348   5.925  14.000
   778G11  C0D053355   7.451   5.902  13.810
   778G11  C0G553356   7.536   5.786  13.841
   778G11  H01F53357   7.536   5.733  13.935
   778G11  C0G453358   7.619   5.740  13.743
   778G11  H01G53359   7.670   5.650  13.774
   778G11  O00H53360   7.623   5.782  13.612
   778G11  C0D253361   7.548   5.892  13.582
   778G11  C09V53362   7.555   5.960  13.456
   778G11  H00Q53363   7.623   5.921  13.383
   778G11  C0D153364   7.459   5.952  13.679
   778G11  C09R53365   7.470   6.077  13.421
   778G11  C09H53366   7.718   6.517  13.014
   778G11  C09E53367   7.491   6.347  13.152
   778G11  C09B53368   7.233   6.440  13.251
   778G11  C08Z53369   7.407   6.700  13.097
   778G11  C08O53370   7.286   6.849  13.301
   778G11  C09A53371   7.132   6.494  13.332
   778G11  C08S53372   7.143   6.736  13.584
   778G11  C09953373   7.132   6.414  13.448
   778G11  C09U53374   7.213   6.221  13.664
   778G11  C0BO53375   6.916   6.244  14.032
   778G11  C0CL53376   7.018   6.515  13.799
   778G11  C0D353377   6.961   6.730  13.921
   778G11  C0D553378   6.856   6.870  14.143
   778G11  C0BR53379   6.862   6.454  14.136
   778G11  C0BQ53380   6.876   6.316  14.142
   778G11  C0BL53381   6.890   6.037  14.159
   778G11  C0AF53382   6.846   5.915  14.402
   778G11  C0BH53383   6.757   6.257  14.489
   778G11  C0BG53384   6.691   6.321  14.594
   778G11  C0BD53385   6.714   6.127  14.733
   778G11  C0AG53386   6.837   5.862  14.523
   778G11  C0AI53387   6.822   5.655  14.647
   778G11  C0AV53388   6.698   5.522  14.853
   778G11  C0BB53389   6.734   5.863  14.989
   778G11  O00C53390   6.600   5.544  15.078
   778G11  C0BC53391   6.666   5.913  15.098
   778G11  C0B953392   6.695   6.064  14.858
   778G11  O00E53393   6.483   6.310  15.029
   778G11  C0CA53394   6.445   6.440  15.013
   778G11  O00F53395   6.392   6.490  15.111
   778G11  C0BF53396   6.665   6.256  14.715
   778G11  C0C553397   6.473   6.508  14.893
   778G11  C0C453398   6.442   6.645  14.878
   778G11  H01153399   6.394   6.701  14.957
   778G11  C0C853400   6.654   6.452  14.574
   778G11  C0C253401   6.490   6.713  14.764
   778G11  C0C353402   6.484   6.855  14.755
   778G11  C0DY53403   6.416   6.945  14.840
   778G11  H01653404   6.349   6.936  14.924
   778G11  C0DX53405   6.466   7.076  14.797
   778G11  C0DW53406   6.444   7.183  14.888
   778G11  C0BY53407   6.682   6.662  14.453
   778G11  C0DB53408   6.558   6.928  14.662
   778G11  C0CC53409   6.746   6.870  14.360
   778G11  C0D753410   6.790   7.140  14.388
   778G11  C0DZ53411   6.570   7.064  14.695
   778G11  C0DM53412   6.810   7.385  14.495
   778G11  C0DQ53413   6.634   7.337  14.803
   778G11  C0DV53414   6.541   7.287  14.897
   778G11  C0E053415   6.377   7.180  15.018
   778G11  C0FO53416   6.310   7.457  15.216
   778G11  C0E353417   6.236   7.184  15.032
   778G11  H01753418   6.154   7.159  14.966
   778G11  C0GV53419   6.175   7.473  15.218
   778G11  C0ES53420   6.386   7.572  15.179
   778G11  C0GQ53421   6.132   7.827  15.259
   778G11  C0FJ53422   6.428   8.056  15.246
   778G11  C0ED53423   6.543   7.819  15.140
   778G11  C0ER53424   6.837   7.993  15.214
   778G11  C0EP53425   6.920   7.987  15.000
   778G11  C0E653426   6.683   7.677  14.978
   778G11  C0DE53427   6.828   7.640  14.708
   778G11  C0EA53428   7.012   7.986  14.760
   778G11  C0DF53429   6.854   7.696  14.577
   778G11  C08053430   7.104   7.907  14.439
   778G11  C0DO53431   6.905   7.624  14.467
   778G11  C0DJ53432   7.013   7.539  14.221
   778G11  C07K53433   7.174   7.866  14.178
   778G11  C07W53434   7.114   7.544  14.012
   778G11  C08353435   7.250   7.680  13.815
   778G11  C07J53436   7.251   7.935  14.081
   778G11  C06O53437   7.395   8.064  13.884
   778G11  C06M53438   7.378   7.874  13.737
   788G11  C07153439   6.145   6.873   7.671
   788G11  C07L53440   6.248   6.846   7.578
   788G11  C07M53441   6.358   6.927   7.566
   788G11  C07Y53442   6.472   6.893   7.488
   788G11  C08153443   6.471   6.767   7.417
   788G11  C08253444   6.592   6.738   7.347
   788G11  C0DI53445   6.629   6.624   7.263
   788G11  C0DH53446   6.561   6.511   7.224
   788G11  C0DG53447   6.647   6.407   7.161
   788G11  C0E953448   6.616   6.329   7.045
   788G11  C0E853449   6.735   6.344   6.951
   788G11  C0E753450   6.743   6.293   6.819
   788G11  C0EB53451   6.658   6.186   6.773
   788G11  C0EF53452   6.660   6.121   6.642
   788G11  C0EE53453   6.653   6.198   6.524
   788G11  C0FD53454   6.533   6.205   6.444
   788G11  C0FE53455   6.423   6.118   6.432
   788G11  H01B53456   6.427   6.020   6.476
   788G11  C0FF53457   6.304   6.151   6.368
   788G11  H01A53458   6.209   6.101   6.363
   788G11  C0FG53459   6.299   6.273   6.304
   788G11  H01853460   6.207   6.305   6.259
   788G11  C0FH53461   6.411   6.359   6.298
   788G11  C0FI53462   6.410   6.493   6.241
   788G11  H01953463   6.313   6.534   6.217
   788G11  O00K53464   6.516   6.577   6.228
   788G11  C0FL53465   6.637   6.523   6.265
   788G11  C0FK53466   6.648   6.399   6.336
   788G11  C0FM53467   6.767   6.368   6.398
   788G11  C0FN53468   6.886   6.440   6.358
   788G11  C0FP53469   6.874   6.551   6.274
   788G11  C0GO53470   6.977   6.638   6.246
   788G11  C0GN53471   6.968   6.767   6.196
   788G11  C0GR53472   6.836   6.814   6.172
   788G11  C0GS53473   6.815   6.947   6.124
   788G11  H01Q53474   6.716   6.980   6.094
   788G11  C0GT53475   6.929   7.027   6.101
   788G11  H01O53476   6.915   7.126   6.059
   788G11  C0GU53477   7.053   6.980   6.138
   788G11  H01P53478   7.139   7.045   6.140
   788G11  O00L53479   6.729   6.728   6.185
   788G11  C0GM53480   7.082   6.852   6.187
   788G11  C0GL53481   7.204   6.804   6.236
   788G11  H01R53482   7.292   6.864   6.249
   788G11  C0GK53483   7.214   6.679   6.300
   788G11  C0GP53484   7.311   6.617   6.386
   788G11  C0E253485   7.258   6.488   6.415
   788G11  C0E153486   7.295   6.461   6.551
   788G11  C0DU53487   7.195   6.447   6.657
   788G11  C0DT53488   7.074   6.380   6.658
   788G11  C0E453489   6.994   6.360   6.544
   788G11  C0E553490   6.871   6.309   6.595
   788G11  C0DS53491   6.986   6.389   6.765
   788G11  C0DR53492   7.023   6.480   6.869
   788G11  C0DD53493   6.942   6.527   6.968
   788G11  C0DC53494   7.025   6.631   7.039
   788G11  C0DP53495   7.150   6.655   6.978
   788G11  C0DA53496   7.250   6.761   7.007
   788G11  C0D953497   7.249   6.880   7.102
   788G11  C0CR53498   7.364   6.960   7.117
   788G11  C0C053499   7.484   6.918   7.071
   788G11  C0BZ53500   7.610   6.970   7.101
   788G11  C0C153501   7.731   6.910   7.057
   788G11  C0C753502   7.850   6.965   7.097
   788G11  C0C653503   7.973   6.905   7.064
   788G11  C0C953504   8.092   6.953   7.111
   788G11  C0B853505   8.213   6.884   7.085
   788G11  C0B753506   8.328   6.915   7.160
   788G11  C0B653507   8.468   6.859   7.155
   788G11  C0B553508   8.537   6.849   7.030
   788G11  H00Z53509   8.493   6.842   6.932
   788G11  C0B453510   8.671   6.889   7.060
   788G11  H01053511   8.752   6.921   6.996
   788G11  C0B353512   8.690   6.885   7.207
   788G11  C0AP53513   8.755   6.978   7.306
   788G11  C0AQ53514   8.650   7.016   7.395
   788G11  C0AR53515   8.660   7.145   7.445
   788G11  C0AS53516   8.537   7.202   7.467
   788G11  C0AT53517   8.420   7.159   7.414
   788G11  C0BA53518   8.414   7.043   7.354
   788G11  C0AU53519   8.307   7.236   7.418
   788G11  C0BE53520   8.198   7.199   7.349
   788G11  C0BI53521   8.086   7.278   7.365
   788G11  C0BJ53522   8.088   7.397   7.444
   788G11  C0BK53523   7.972   7.468   7.466
   788G11  C0BW53524   7.851   7.417   7.424
   788G11  C0BV53525   7.850   7.306   7.338
   788G11  C0BU53526   7.729   7.260   7.293
   788G11  C0BX53527   7.731   7.145   7.214
   788G11  C0BT53528   7.610   7.311   7.339
   788G11  C0CD53529   7.492   7.252   7.306
   788G11  C0CB53530   7.484   7.144   7.213
   788G11  C0CE53531   7.376   7.298   7.370
   788G11  C0CK53532   7.375   7.417   7.444
   788G11  C0BS53533   7.492   7.485   7.468
   788G11  C0CJ53534   7.489   7.606   7.543
   788G11  C0BP53535   7.613   7.661   7.581
   788G11  C0CI53536   7.617   7.769   7.667
   788G11  C0CH53537   7.741   7.797   7.731
   788G11  H01253538   7.736   7.865   7.815
   788G11  C0BN53539   7.860   7.742   7.689
   788G11  C0CG53540   7.981   7.796   7.734
   788G11  C0CF53541   7.993   7.908   7.822
   788G11  H01353542   7.903   7.959   7.853
   788G11  O00G53543   8.114   7.964   7.850
   788G11  C0AA53544   8.224   7.890   7.820
   788G11  C0A953545   8.339   7.932   7.881
   788G11  H00U53546   8.331   8.019   7.944
   788G11  C0A853547   8.463   7.866   7.865
   788G11  H00V53548   8.542   7.910   7.924
   788G11  C0A753549   8.478   7.756   7.773
   788G11  C0A653550   8.350   7.714   7.709
   788G11  C0A553551   8.338   7.598   7.634
   788G11  C0A453552   8.451   7.517   7.604
   788G11  C0A353553   8.599   7.510   7.624
   788G11  C0A253554   8.677   7.608   7.676
   788G11  C0A153555   8.815   7.588   7.710
   788G11  C0A053556   8.922   7.497   7.668
   788G11  C09Z53557   9.049   7.530   7.718
   788G11  C09Y53558   9.163   7.461   7.669
   788G11  H00Y53559   9.261   7.492   7.702
   788G11  C09X53560   9.149   7.370   7.564
   788G11  C09W53561   9.263   7.314   7.506
   788G11  H00R53562   9.362   7.352   7.528
   788G11  C0AX53563   9.262   7.204   7.421
   788G11  H00S53564   9.356   7.156   7.397
   788G11  C0AW53565   9.142   7.151   7.385
   788G11  H00T53566   9.144   7.070   7.314
   788G11  C0AN53567   9.021   7.211   7.436
   788G11  C0AO53568   8.891   7.155   7.409
   788G11  C0AM53569   9.027   7.322   7.527
   788G11  C0B253570   9.076   7.638   7.809
   788G11  O00D53571   9.188   7.674   7.847
   788G11  C0B153572   8.969   7.714   7.853
   788G11  H00W53573   8.981   7.789   7.929
   788G11  C0AL53574   8.910   7.387   7.583
   788G11  C0AK53575   8.787   7.336   7.538
   788G11  C0B053576   8.844   7.696   7.795
   788G11  C0AZ53577   8.728   7.769   7.824
   788G11  H00X53578   8.734   7.860   7.882
   788G11  C0AJ53579   8.654   7.390   7.570
   788G11  C0AH53580   8.424   7.394   7.541
   788G11  C0AE53581   8.213   7.549   7.587
   788G11  C0AD53582   8.099   7.621   7.609
   788G11  C0AY53583   8.617   7.712   7.752
   788G11  C0AB53584   8.227   7.775   7.739
   788G11  C0AC53585   8.102   7.729   7.696
   788G11  C0BM53586   7.853   7.638   7.594
   788G11  C0CM53587   7.498   7.849   7.685
   788G11  C09M53588   7.369   7.797   7.651
   788G11  C09853589   7.251   7.881   7.677
   788G11  C08R53590   7.109   7.853   7.697
   788G11  C08Q53591   7.025   7.963   7.746
   788G11  C08P53592   6.904   7.978   7.829
   788G11  C08Y53593   6.901   8.095   7.904
   788G11  C09753594   7.010   8.175   7.923
   788G11  C09653595   7.018   8.224   8.047
   788G11  C09053596   6.884   8.216   8.092
   788G11  C09553597   6.841   8.244   8.227
   788G11  C09453598   6.704   8.247   8.266
   788G11  C08J53599   6.589   8.170   8.219
   788G11  C08I53600   6.516   8.126   8.336
   788G11  C08H53601   6.459   7.996   8.300
   788G11  C08G53602   6.514   7.946   8.174
   788G11  C08F53603   6.491   7.844   8.075
   788G11  C08E53604   6.379   7.757   8.080
   788G11  C05953605   6.260   7.779   8.153
   788G11  C05853606   6.145   7.703   8.139
   788G11  C05753607   6.025   7.712   8.210
   788G11  C05653608   6.023   7.816   8.307
   788G11  C05553609   6.114   7.916   8.308
   788G11  C05453610   6.107   7.982   8.426
   788G11  C05353611   6.003   7.917   8.507
   788G11  C05253612   5.973   7.920   8.649
   788G11  C05153613   6.056   7.996   8.738
   788G11  C05U53614   6.181   8.068   8.703
   788G11  C05T53615   6.271   8.079   8.590
   788G11  C06K53616   6.349   8.201   8.611
   788G11  H00J53617   6.402   8.253   8.533
   788G11  C06L53618   6.334   8.238   8.747
   788G11  H00I53619   6.393   8.313   8.796
   788G11  C05V53620   6.237   8.152   8.798
   788G11  C06J53621   6.194   8.154   8.929
   788G11  H00K53622   6.243   8.215   9.004
   788G11  C05X53623   6.082   8.079   8.973
   788G11  C06I53624   6.035   8.068   9.106
   788G11  H00L53625   6.086   8.131   9.178
   788G11  C04Z53626   5.929   7.993   9.157
   788G11  C06H53627   5.882   7.996   9.289
   788G11  H00H53628   5.936   8.055   9.360
   788G11  C04Y53629   5.772   7.913   9.326
   788G11  C06G53630   5.732   7.920   9.458
   788G11  O00953631   5.770   8.004   9.538
   788G11  O00853632   5.636   7.830   9.501
   788G11  C04P53633   5.591   7.729   9.418
   788G11  C04J53634   5.509   7.614   9.461
   788G11  C04Q53635   5.476   7.576   9.590
   788G11  H00E53636   5.511   7.643   9.667
   788G11  C04M53637   5.410   7.455   9.627
   788G11  C04R53638   5.389   7.400   9.756
   788G11  H00F53639   5.428   7.442   9.848
   788G11  C04S53640   5.307   7.295   9.768
   788G11  H00G53641   5.283   7.256   9.866
   788G11  O00753642   5.250   7.222   9.670
   788G11  C03V53643   5.277   7.268   9.543
   788G11  C03U53644   5.246   7.186   9.439
   788G11  O00653645   5.175   7.076   9.474
   788G11  C03F53646   5.126   6.994   9.378
   788G11  C03E53647   5.164   7.008   9.242
   788G11  C03D53648   5.244   7.115   9.209
   788G11  C03C53649   5.282   7.132   9.079
   788G11  C03B53650   5.237   7.033   8.996
   788G11  C03A53651   5.267   7.047   8.855
   788G11  C03953652   5.333   7.166   8.803
   788G11  C03853653   5.344   7.140   8.661
   788G11  C03753654   5.267   7.022   8.644
   788G11  C03653655   5.259   6.961   8.523
   788G11  C02R53656   5.205   6.836   8.493
   788G11  C03553657   5.252   6.819   8.362
   788G11  C03R53658   5.319   6.928   8.311
   788G11  C03S53659   5.423   6.913   8.219
   788G11  C04953660   5.522   7.014   8.220
   788G11  C04853661   5.506   7.116   8.314
   788G11  C03P53662   5.413   7.117   8.428
   788G11  C04753663   5.597   7.227   8.293
   788G11  C04653664   5.600   7.352   8.358
   788G11  C04553665   5.546   7.391   8.478
   788G11  C03T53666   5.469   7.317   8.567
   788G11  C04453667   5.463   7.393   8.684
   788G11  C04353668   5.518   7.521   8.657
   788G11  C04253669   5.581   7.577   8.769
   788G11  C04153670   5.522   7.488   8.875
   788G11  C04053671   5.533   7.522   9.008
   788G11  C03Z53672   5.470   7.461   9.119
   788G11  C04H53673   5.495   7.544   9.232
   788G11  C04G53674   5.582   7.644   9.195
   788G11  C03N53675   5.387   7.343   9.142
   788G11  C03Y53676   5.350   7.326   9.278
   788G11  C03X53677   5.390   7.413   9.382
   788G11  C04F53678   5.607   7.635   9.059
   788G11  C04E53679   5.706   7.726   9.013
   788G11  C04O53680   5.764   7.823   9.100
   788G11  C04D53681   5.747   7.737   8.882
   788G11  C04V53682   5.843   7.832   8.843
   788G11  C04W53683   5.910   7.923   8.927
   788G11  C04C53684   5.692   7.676   8.768
   788G11  C04L53685   5.767   7.742   8.659
   788G11  C04U53686   5.740   7.713   8.520
   788G11  C05Q53687   5.844   7.733   8.421
   788G11  C05P53688   5.828   7.644   8.310
   788G11  C04T53689   5.726   7.555   8.347
   788G11  C04B53690   5.678   7.596   8.470
   788G11  C03M53691   5.441   7.376   8.828
   788G11  C04A53692   5.586   7.512   8.537
   788G11  C05H53693   5.692   7.432   8.295
   788G11  C05G53694   5.757   7.352   8.190
   788G11  C05F53695   5.847   7.403   8.092
   788G11  C05E53696   5.928   7.316   8.008
   788G11  C05L53697   5.921   7.181   7.961
   788G11  C05K53698   5.824   7.087   7.998
   788G11  C05J53699   5.719   7.105   8.100
   788G11  C06653700   5.835   6.960   7.935
   788G11  C06553701   5.944   6.929   7.850
   788G11  C06453702   6.044   7.024   7.822
   788G11  C06N53703   5.939   6.811   7.779
   788G11  C06953704   5.838   6.716   7.796
   788G11  C06P53705   5.841   6.596   7.726
   788G11  C06R53706   5.748   6.497   7.745
   788G11  C06B53707   5.650   6.515   7.842
   788G11  C06S53708   5.557   6.416   7.867
   788G11  C02G53709   5.460   6.435   7.962
   788G11  C02F53710   5.372   6.328   7.991
   788G11  C02753711   5.380   6.207   7.928
   788G11  C02653712   5.296   6.105   7.968
   788G11  C00E53713   5.308   5.983   7.905
   788G11  C00D53714   5.234   5.873   7.957
   788G11  C00C53715   5.262   5.751   7.905
   788G11  C00B53716   5.367   5.724   7.816
   788G11  C01553717   5.434   5.830   7.759
   788G11  C07F53718   5.551   5.812   7.675
   788G11  C07E53719   5.623   5.916   7.631
   788G11  C06W53720   5.590   6.046   7.674
   788G11  C06V53721   5.484   6.063   7.766
   788G11  C06X53722   5.672   6.151   7.638
   788G11  C07B53723   5.773   6.131   7.544
   788G11  C07C53724   5.803   6.002   7.501
   788G11  C0FU53725   5.904   5.984   7.409
   788G11  C0F753726   5.939   5.857   7.366
   788G11  C0F653727   6.045   5.840   7.275
   788G11  C0F853728   6.070   5.711   7.232
   788G11  C0F953729   6.170   5.692   7.133
   788G11  C0FA53730   6.189   5.565   7.080
   788G11  C0FZ53731   6.116   5.456   7.130
   788G11  C0G053732   6.134   5.331   7.068
   788G11  C0GD53733   6.220   5.306   6.959
   788G11  C0FC53734   6.282   5.414   6.903
   788G11  C0GH53735   6.355   5.405   6.784
   788G11  C0EY53736   6.418   5.521   6.727
   788G11  C0EX53737   6.479   5.512   6.603
   788G11  C0EW53738   6.540   5.632   6.550
   788G11  C0FR53739   6.588   5.643   6.417
   788G11  H01D53740   6.617   5.731   6.363
   788G11  C0FS53741   6.588   5.521   6.343
   788G11  H01C53742   6.625   5.521   6.242
   788G11  C0GJ53743   6.531   5.405   6.396
   788G11  H01N53744   6.531   5.317   6.333
   788G11  C0EV53745   6.546   5.751   6.623
   788G11  C0FT53746   6.604   5.874   6.571
   788G11  H01E53747   6.643   5.882   6.470
   788G11  C0EU53748   6.485   5.751   6.749
   788G11  C0ET53749   6.492   5.863   6.833
   788G11  C0EI53750   6.419   5.886   6.946
   788G11  C0F153751   6.337   5.777   6.986
   788G11  C0F053752   6.339   5.656   6.920
   788G11  C0EH53753   6.417   6.011   7.007
   788G11  C0EG53754   6.506   6.112   6.972
   788G11  C0EJ53755   6.311   6.032   7.099
   788G11  C0F353756   6.225   5.925   7.130
   788G11  C0EK53757   6.288   6.159   7.155
   788G11  C0EL53758   6.389   6.257   7.139
   788G11  C0EM53759   6.354   6.382   7.209
   788G11  C0EN53760   6.233   6.401   7.263
   788G11  C07I53761   6.214   6.519   7.333
   788G11  C07453762   6.124   6.536   7.442
   788G11  C07353763   6.140   6.643   7.524
   788G11  C07253764   6.046   6.665   7.617
   788G11  C07553765   6.041   6.434   7.462
   788G11  C07653766   6.047   6.318   7.386
   788G11  C07853767   5.959   6.215   7.415
   788G11  C07G53768   5.951   6.451   7.562
   788G11  C07053769   5.855   6.353   7.581
   788G11  C07Z53770   6.341   6.581   7.328
   788G11  C07753771   6.145   6.296   7.291
   788G11  C0EO53772   6.177   6.176   7.236
   788G11  C0F453773   6.087   6.073   7.267
   788G11  C0EQ53774   6.568   5.977   6.785
   788G11  C0FQ53775   6.478   5.392   6.527
   788G11  C0GI53776   6.426   5.275   6.587
   788G11  H01L53777   6.441   5.179   6.538
   788G11  C0EZ53778   6.416   5.644   6.800
   788G11  C0GG53779   6.364   5.280   6.716
   788G11  C0GF53780   6.310   5.168   6.782
   788G11  H01M53781   6.308   5.068   6.741
   788G11  C0GE53782   6.241   5.178   6.904
   788G11  H01K53783   6.216   5.087   6.956
   788G11  O00J53784   6.070   5.221   7.119
   788G11  C0GA53785   5.990   5.239   7.237
   788G11  C0G953786   5.928   5.131   7.298
   788G11  H01H53787   5.968   5.034   7.272
   788G11  C0G853788   5.845   5.146   7.406
   788G11  C0G753789   5.791   5.039   7.482
   788G11  H01I53790   5.841   4.946   7.463
   788G11  O00I53791   5.726   5.047   7.596
   788G11  C0G653792   5.679   5.171   7.621
   788G11  H01J53793   5.646   5.177   7.723
   788G11  C02D53794   5.714   5.289   7.551
   788G11  C02C53795   5.675   5.418   7.592
   788G11  C01753796   5.566   5.444   7.687
   788G11  C01653797   5.515   5.576   7.707
   788G11  O00153798   5.493   5.338   7.734
   788G11  C01853799   5.407   5.356   7.840
   788G11  C00953800   5.349   5.481   7.865
   788G11  C00853801   5.240   5.503   7.962
   788G11  C00753802   5.182   5.429   8.074
   788G11  C00653803   5.235   5.309   8.124
   788G11  C00553804   5.195   5.236   8.244
   788G11  C00453805   5.117   5.287   8.354
   788G11  C00353806   5.051   5.417   8.379
   788G11  C00253807   4.981   5.434   8.503
   788G11  C00P53808   4.942   5.567   8.549
   788G11  C00O53809   4.877   5.586   8.668
   788G11  C00N53810   4.861   5.709   8.730
   788G11  C01053811   4.806   5.729   8.853
   788G11  C01153812   4.804   5.856   8.915
   788G11  C01Q53813   4.753   5.868   9.044
   788G11  C01U53814   4.708   5.757   9.121
   788G11  C01253815   4.703   5.635   9.047
   788G11  H00053816   4.663   5.550   9.100
   788G11  C01V53817   4.668   5.784   9.254
   788G11  H00753818   4.648   5.703   9.322
   788G11  O00553819   4.659   5.908   9.313
   788G11  C01W53820   4.687   6.017   9.231
   788G11  C03153821   4.653   6.145   9.276
   788G11  C03253822   4.674   6.255   9.196
   788G11  H00A53823   4.637   6.353   9.224
   788G11  C03353824   4.722   6.239   9.066
   788G11  H00B53825   4.731   6.332   9.013
   788G11  C01O53826   4.767   6.113   9.025
   788G11  C01N53827   4.836   6.103   8.909
   788G11  C01M53828   4.883   6.220   8.834
   788G11  C01L53829   4.939   6.361   8.839
   788G11  C01K53830   4.970   6.389   8.705
   788G11  C01Y53831   5.038   6.503   8.660
   788G11  C02I53832   5.068   6.605   8.753
   788G11  C02N53833   5.128   6.723   8.702
   788G11  C02M53834   5.155   6.825   8.798
   788G11  C02L53835   5.119   6.815   8.932
   788G11  C02K53836   5.058   6.699   8.977
   788G11  C02U53837   5.021   6.692   9.115
   788G11  C02V53838   5.049   6.797   9.197
   788G11  C03H53839   4.995   6.805   9.330
   788G11  H00C53840   4.919   6.744   9.377
   788G11  C02W53841   4.987   6.570   9.169
   788G11  C02X53842   4.970   6.462   9.083
   788G11  C02Y53843   4.957   6.355   9.172
   788G11  H00853844   4.951   6.247   9.162
   788G11  C02Z53845   4.931   6.416   9.307
   788G11  O00453846   4.883   6.367   9.408
   788G11  O00353847   4.947   6.548   9.296
   788G11  C02J53848   5.036   6.586   8.888
   788G11  C01Z53849   5.076   6.497   8.528
   788G11  C02053850   5.062   6.384   8.450
   788G11  C01I53851   5.005   6.275   8.501
   788G11  C01H53852   5.018   6.147   8.444
   788G11  C00K53853   4.969   6.036   8.514
   788G11  C01S53854   4.921   6.052   8.642
   788G11  C01453855   4.895   5.948   8.723
   788G11  C00J53856   4.985   5.912   8.459
   788G11  C00I53857   5.034   5.902   8.327
   788G11  C00H53858   5.089   6.014   8.263
   788G11  C00G53859   5.157   6.005   8.142
   788G11  C00S53860   5.054   5.775   8.270
   788G11  C00T53861   5.117   5.775   8.150
   788G11  C00U53862   5.130   5.650   8.089
   788G11  C00R53863   5.026   5.660   8.344
   788G11  C00L53864   4.947   5.803   8.530
   788G11  C02853865   5.082   6.136   8.324
   788G11  C02353866   5.130   6.252   8.261
   788G11  C02453867   5.206   6.237   8.143
   788G11  C02153868   5.129   6.372   8.329
   788G11  C02253869   5.200   6.475   8.281
   788G11  C02H53870   5.281   6.459   8.169
   788G11  C03053871   5.361   6.566   8.132
   788G11  C03453872   5.357   6.688   8.196
   788G11  C02P53873   5.199   6.592   8.349
   788G11  C02B53874   5.141   6.607   8.473
   788G11  C01J53875   4.933   6.290   8.620
   788G11  C01X53876   4.979   6.460   8.940
   788G11  C01T53877   4.904   6.182   8.695
   788G11  H00953878   4.606   6.160   9.373
   788G11  C01P53879   4.736   6.000   9.098
   788G11  C01R53880   4.845   5.970   8.852
   788G11  C00Z53881   4.758   5.617   8.918
   788G11  O00053882   4.777   5.491   8.868
   788G11  C00M53883   4.906   5.820   8.666
   788G11  C00Y53884   4.839   5.474   8.747
   788G11  C01353885   4.875   5.354   8.706
   788G11  H00153886   4.849   5.274   8.775
   788G11  C00Q53887   4.969   5.679   8.472
   788G11  C00153888   4.951   5.333   8.587
   788G11  C00053889   5.001   5.210   8.556
   788G11  H00653890   4.991   5.127   8.623
   788G11  C00W53891   5.068   5.534   8.296
   788G11  C01G53892   5.091   5.191   8.452
   788G11  H00553893   5.121   5.088   8.439
   788G11  C01C53894   5.264   5.110   8.236
   788G11  H00253895   5.284   5.033   8.310
   788G11  C01B53896   5.328   5.101   8.113
   788G11  C01D53897   5.405   4.994   8.065
   788G11  H00353898   5.421   4.903   8.121
   788G11  C01E53899   5.449   5.008   7.938
   788G11  H00453900   5.515   4.939   7.887
   788G11  O00253901   5.438   5.119   7.855
   788G11  C01A53902   5.316   5.227   8.046
   788G11  C00V53903   5.117   5.528   8.157
   788G11  C01953904   5.379   5.237   7.916
   788G11  C02E53905   5.731   5.529   7.526
   788G11  C0FX53906   5.833   5.509   7.431
   788G11  C0FW53907   5.903   5.618   7.380
   788G11  C0GB53908   5.861   5.382   7.389
   788G11  C0G353909   5.692   5.656   7.563
   788G11  C07H53910   5.762   5.766   7.508
   788G11  C0GC53911   5.805   5.273   7.451
   788G11  C0G253912   5.959   5.369   7.285
   788G11  C0G153913   6.026   5.479   7.235
   788G11  C0FB53914   6.270   5.543   6.967
   788G11  C0F253915   6.246   5.799   7.084
   788G11  C0FY53916   6.002   5.604   7.287
   788G11  C0F553917   6.119   5.947   7.222
   788G11  C0FV53918   5.867   5.745   7.419
   788G11  C07953919   5.983   6.092   7.361
   788G11  C07A53920   5.862   6.232   7.512
   788G11  C06Y53921   5.660   6.272   7.699
   788G11  C07D53922   5.731   5.898   7.546
   788G11  C01F53923   5.589   5.680   7.650
   788G11  C00A53924   5.406   5.595   7.793
   788G11  C00X53925   5.200   5.637   7.968
   788G11  C00F53926   5.165   5.884   8.075
   788G11  C02953927   5.401   5.960   7.798
   788G11  C02553928   5.217   6.116   8.082
   788G11  C06U53929   5.475   6.186   7.828
   788G11  C02A53930   5.283   6.341   8.097
   788G11  C05Y53931   5.456   6.556   8.032
   788G11  C05Z53932   5.545   6.660   8.005
   788G11  C06053933   5.535   6.781   8.069
   788G11  C06253934   5.629   6.883   8.047
   788G11  C06T53935   5.562   6.292   7.802
   788G11  C06A53936   5.640   6.636   7.911
   788G11  C06Z53937   5.754   6.375   7.672
   788G11  C06Q53938   5.945   6.568   7.640
   788G11  C06853939   5.736   6.737   7.888
   788G11  C06753940   5.732   6.862   7.956
   788G11  C06353941   6.031   7.146   7.875
   788G11  C06C53942   6.143   7.236   7.857
   788G11  C06D53943   6.148   7.358   7.910
   788G11  C06E53944   6.255   7.446   7.906
   788G11  C07Q53945   6.362   7.417   7.827
   788G11  C07P53946   6.366   7.295   7.767
   788G11  C07T53947   6.468   7.268   7.680
   788G11  C07U53948   6.466   7.146   7.614
   788G11  C07V53949   6.573   7.111   7.537
   788G11  C08453950   6.680   7.198   7.521
   788G11  C08C53951   6.677   7.317   7.586
   788G11  C08B53952   6.785   7.399   7.580
   788G11  C08A53953   6.779   7.513   7.650
   788G11  C08953954   6.681   7.555   7.727
   788G11  C08853955   6.692   7.667   7.808
   788G11  C08753956   6.591   7.702   7.898
   788G11  C08653957   6.480   7.620   7.901
   788G11  C08X53958   6.804   7.755   7.807
   788G11  C08T53959   6.922   7.699   7.739
   788G11  C08D53960   6.572   7.479   7.734
   788G11  C08U53961   6.901   7.584   7.666
   788G11  C08V53962   7.017   7.544   7.598
   788G11  C0CY53963   7.018   7.433   7.522
   788G11  C0CX53964   7.140   7.389   7.474
   788G11  C0CW53965   7.140   7.276   7.393
   788G11  C0CV53966   7.019   7.208   7.379
   788G11  C0D453967   6.896   7.250   7.445
   788G11  C0CU53968   7.022   7.092   7.307
   788G11  C0CT53969   7.137   7.045   7.247
   788G11  C0CS53970   7.251   7.123   7.257
   788G11  C0D653971   6.911   7.014   7.309
   788G11  C0EC53972   6.795   7.037   7.385
   788G11  C07X53973   6.689   6.952   7.396
   788G11  C0DL53974   6.917   6.889   7.249
   788G11  C0DK53975   6.811   6.806   7.259
   788G11  C0DN53976   6.854   6.696   7.194
   788G11  C0D853977   7.026   6.839   7.185
   788G11  C08W53978   7.124   7.622   7.622
   788G11  C0CQ53979   7.251   7.593   7.557
   788G11  C09353980   6.899   7.363   7.514
   788G11  C09253981   6.791   7.162   7.448
   788G11  C08553982   6.573   7.356   7.667
   788G11  C07S53983   6.471   7.507   7.818
   788G11  C06F53984   6.267   7.564   7.983
   788G11  C07O53985   6.257   7.205   7.781
   788G11  C07N53986   6.252   7.084   7.709
   788G11  C05D53987   6.042   7.389   7.983
   788G11  C05C53988   6.049   7.511   8.048
   788G11  C05N53989   5.930   7.515   8.115
   788G11  C05M53990   5.696   7.225   8.185
   788G11  C05I53991   5.630   6.997   8.126
   788G11  C06153992   5.434   6.797   8.157
   788G11  C02Q53993   5.272   6.695   8.299
   788G11  C02O53994   5.157   6.717   8.563
   788G11  C03Q53995   5.328   7.012   8.416
   788G11  C03O53996   5.418   7.193   8.548
   788G11  C03L53997   5.373   7.269   8.895
   788G11  C02S53998   5.227   6.956   8.759
   788G11  C02T53999   5.156   6.921   9.024
   788G11  C03K54000   5.351   7.254   9.035
   788G11  C03I54001   5.126   6.906   9.157
   788G11  C03G54002   5.038   6.899   9.420
   788G11  H00D54003   5.001   6.898   9.521
   788G11  C03J54004   5.284   7.211   9.308
   788G11  C03W54005   5.358   7.380   9.517
   788G11  C04I54006   5.468   7.523   9.363
   788G11  C04K54007   5.630   7.735   9.282
   788G11  C04N54008   5.724   7.822   9.235
   788G11  C04X54009   5.871   7.906   9.061
   788G11  C05054010   6.018   8.000   8.877
   788G11  C05W54011   5.870   7.837   8.708
   788G11  C05S54012   6.241   8.017   8.460
   788G11  C05R54013   5.939   7.833   8.415
   788G11  C05O54014   5.920   7.623   8.208
   788G11  C05B54015   6.155   7.601   8.051
   788G11  C05A54016   6.240   7.882   8.256
   788G11  C07R54017   6.379   7.647   7.994
   788G11  C08N54018   6.599   7.820   7.981
   788G11  C08M54019   6.702   7.911   7.959
   788G11  C08L54020   6.704   8.032   8.031
   788G11  C09154021   6.327   7.963   8.343
   788G11  C09K54022   6.599   8.160   8.450
   788G11  H00M54023   6.597   8.106   8.543
   788G11  C08K54024   6.602   8.056   8.132
   788G11  C09J54025   6.708   8.245   8.403
   788G11  C09I54026   6.834   8.293   8.448
   788G11  C09L54027   6.875   8.366   8.566
   788G11  H00N54028   6.804   8.371   8.647
   788G11  C09Q54029   7.006   8.411   8.566
   788G11  H00O54030   7.046   8.470   8.647
   788G11  O00B54031   7.094   8.392   8.459
   788G11  C09G54032   7.059   8.325   8.342
   788G11  C09F54033   7.165   8.299   8.252
   788G11  O00A54034   7.286   8.327   8.311
   788G11  C09P54035   7.401   8.301   8.238
   788G11  H00P54036   7.493   8.290   8.294
   788G11  C09O54037   7.398   8.243   8.107
   788G11  C09D54038   7.266   8.212   8.048
   788G11  C09C54039   7.236   8.155   7.916
   788G11  C09N54040   7.322   8.073   7.835
   788G11  C09T54041   7.454   8.038   7.865
   788G11  C09S54042   7.535   8.139   7.925
   788G11  C0CP54043   7.647   8.138   7.839
   788G11  C0CN54044   7.641   8.061   7.724
   788G11  C0CO54045   7.740   8.071   7.622
   788G11  H01454046   7.741   8.022   7.526
   788G11  C0CZ54047   7.856   8.143   7.663
   788G11  H01554048   7.941   8.136   7.596
   788G11  C0D054049   7.863   8.222   7.787
   788G11  C0G554050   7.979   8.296   7.835
   788G11  H01F54051   8.070   8.286   7.778
   788G11  C0G454052   7.975   8.368   7.948
   788G11  H01G54053   8.062   8.425   7.976
   788G11  O00H54054   7.866   8.377   8.036
   788G11  C0D254055   7.757   8.303   7.994
   788G11  C09V54056   7.636   8.308   8.066
   788G11  H00Q54057   7.638   8.359   8.161
   788G11  C0D154058   7.752   8.227   7.875
   788G11  C09R54059   7.516   8.228   8.034
   788G11  C09H54060   6.924   8.288   8.333
   788G11  C09E54061   7.145   8.252   8.119
   788G11  C09B54062   7.119   8.147   7.852
   788G11  C08Z54063   6.821   8.117   8.014
   788G11  C08O54064   6.806   7.880   7.865
   788G11  C09A54065   7.115   8.073   7.736
   788G11  C08S54066   7.063   7.725   7.707
   788G11  C09954067   7.241   8.019   7.726
   788G11  C09U54068   7.527   7.979   7.752
   788G11  C0BO54069   7.734   7.590   7.546
   788G11  C0CL54070   7.368   7.667   7.581
   788G11  C0D354071   7.254   7.468   7.489
   788G11  C0D554072   7.258   7.232   7.342
   788G11  C0BR54073   7.613   7.424   7.424
   788G11  C0BQ54074   7.734   7.485   7.460
   788G11  C0BL54075   7.977   7.580   7.552
   788G11  C0AF54076   8.203   7.438   7.512
   788G11  C0BH54077   7.968   7.239   7.311
   788G11  C0BG54078   7.968   7.124   7.225
   788G11  C0BD54079   8.200   7.089   7.265
   788G11  C0AG54080   8.304   7.352   7.492
   788G11  C0AI54081   8.540   7.328   7.524
   788G11  C0AV54082   8.782   7.211   7.470
   788G11  C0BB54083   8.530   6.959   7.349
   788G11  O00C54084   8.880   7.039   7.327
   788G11  C0BC54085   8.556   6.860   7.259
   788G11  C0B954086   8.313   7.006   7.264
   788G11  O00E54087   8.215   6.784   6.997
   788G11  C0CA54088   8.101   6.712   6.967
   788G11  O00F54089   8.104   6.598   6.920
   788G11  C0BF54090   8.088   7.060   7.196
   788G11  C0C554091   7.978   6.788   6.988
   788G11  C0C454092   7.856   6.730   6.942
   788G11  H01154093   7.865   6.652   6.868
   788G11  C0C854094   7.850   7.077   7.178
   788G11  C0C254095   7.733   6.794   6.977
   788G11  C0C354096   7.608   6.750   6.935
   788G11  C0DY54097   7.576   6.654   6.835
   788G11  H01654098   7.626   6.589   6.765
   788G11  C0DX54099   7.429   6.656   6.836
   788G11  C0DW54100   7.352   6.589   6.738
   788G11  C0BY54101   7.608   7.090   7.173
   788G11  C0DB54102   7.486   6.811   6.986
   788G11  C0CC54103   7.363   7.078   7.195
   788G11  C0D754104   7.141   6.927   7.170
   788G11  C0DZ54105   7.373   6.744   6.941
   788G11  C0DM54106   6.987   6.709   7.145
   788G11  C0DQ54107   7.141   6.558   6.871
   788G11  C0DV54108   7.231   6.531   6.763
   788G11  C0E054109   7.383   6.564   6.599
   788G11  C0FO54110   7.127   6.479   6.366
   788G11  C0E354111   7.393   6.667   6.495
   788G11  H01754112   7.419   6.771   6.507
   788G11  C0GV54113   7.104   6.594   6.291
   788G11  C0ES54114   7.012   6.410   6.413
   788G11  C0GQ54115   6.751   6.599   6.241
   788G11  C0FJ54116   6.530   6.319   6.359
   788G11  C0ED54117   6.761   6.285   6.509
   788G11  C0ER54118   6.613   5.985   6.657
   788G11  C0EP54119   6.580   6.091   6.851
   788G11  C0E654120   6.862   6.322   6.738
   788G11  C0DE54121   6.827   6.447   7.014
   788G11  C0EA54122   6.503   6.233   7.050
   788G11  C0DF54123   6.770   6.472   7.140
   788G11  C08054124   6.425   6.498   7.246
   788G11  C0DO54125   6.759   6.602   7.202
   788G11  C0DJ54126   6.695   6.831   7.341
   788G11  C07K54127   6.353   6.693   7.418
   788G11  C07W54128   6.576   6.986   7.475
   788G11  C08354129   6.359   7.053   7.633
   788G11  C07J54130   6.248   6.730   7.502
   788G11  C06O54131   6.047   6.783   7.692
   788G11  C06M54132   6.148   6.995   7.733
   798G11  C07154133   7.839   9.245  12.963
   798G11  C07L54134   7.729   9.182  13.017
   798G11  C07M54135   7.678   9.216  13.144
   798G11  C07Y54136   7.577   9.146  13.207
   798G11  C08154137   7.514   9.039  13.143
   798G11  C08254138   7.405   8.976  13.208
   798G11  C0DI54139   7.323   8.855  13.166
   798G11  C0DH54140   7.317   8.776  13.041
   798G11  C0DG54141   7.212   8.680  13.053
   798G11  C0E954142   7.184   8.548  13.008
   798G11  C0E854143   7.087   8.493  13.114
   798G11  C0E754144   6.989   8.381  13.104
   798G11  C0EB54145   6.986   8.301  12.984
   798G11  C0EF54146   6.879   8.209  12.941
   798G11  C0EE54147   6.745   8.188  12.980
   798G11  C0FD54148   6.643   8.168  12.886
   798G11  C0FE54149   6.661   8.193  12.744
   798G11  H01B54150   6.757   8.227  12.707
   798G11  C0FF54151   6.564   8.155  12.650
   798G11  H01A54152   6.577   8.175  12.545
   798G11  C0FG54153   6.455   8.089  12.696
   798G11  H01854154   6.382   8.055  12.625
   798G11  C0FH54155   6.428   8.067  12.832
   798G11  C0FI54156   6.308   8.004  12.884
   798G11  H01954157   6.231   7.971  12.816
   798G11  O00K54158   6.283   8.007  13.015
   798G11  C0FL54159   6.379   8.038  13.104
   798G11  C0FK54160   6.509   8.086  13.061
   798G11  C0FM54161   6.601   8.116  13.159
   798G11  C0FN54162   6.572   8.088  13.297
   798G11  C0FP54163   6.446   8.043  13.333
   798G11  C0GO54164   6.407   8.042  13.466
   798G11  C0GN54165   6.278   8.009  13.510
   798G11  C0GR54166   6.182   7.979  13.415
   798G11  C0GS54167   6.057   7.933  13.448
   798G11  H01Q54168   5.987   7.903  13.371
   798G11  C0GT54169   6.028   7.921  13.581
   798G11  H01O54170   5.926   7.893  13.605
   798G11  C0GU54171   6.116   7.962  13.679
   798G11  H01P54172   6.084   7.948  13.781
   798G11  O00L54173   6.223   7.989  13.278
   798G11  C0GM54174   6.249   7.996  13.651
   798G11  C0GL54175   6.349   8.023  13.749
   798G11  H01R54176   6.336   8.013  13.856
   798G11  C0GK54177   6.478   8.049  13.698
   798G11  C0GP54178   6.600   8.096  13.748
   798G11  C0E254179   6.703   8.089  13.644
   798G11  C0E154180   6.795   8.194  13.663
   798G11  C0DU54181   6.837   8.291  13.571
   798G11  C0DT54182   6.850   8.275  13.433
   798G11  C0E454183   6.771   8.200  13.348
   798G11  C0E554184   6.810   8.219  13.220
   798G11  C0DS54185   6.917   8.364  13.354
   798G11  C0DR54186   6.967   8.480  13.426
   798G11  C0DD54187   7.037   8.581  13.371
   798G11  C0DC54188   7.043   8.680  13.485
   798G11  C0DP54189   6.977   8.638  13.609
   798G11  C0DA54190   6.974   8.696  13.747
   798G11  C0D954191   7.034   8.823  13.807
   798G11  C0CR54192   7.011   8.861  13.941
   798G11  C0C054193   6.934   8.785  14.028
   798G11  C0BZ54194   6.905   8.813  14.162
   798G11  C0C154195   6.830   8.727  14.242
   798G11  C0C754196   6.804   8.759  14.371
   798G11  C0C654197   6.715   8.678  14.450
   798G11  C0C954198   6.672   8.721  14.574
   798G11  C0B854199   6.573   8.647  14.647
   798G11  C0B754200   6.532   8.688  14.780
   798G11  C0B654201   6.442   8.627  14.873
   798G11  C0B554202   6.429   8.482  14.879
   798G11  H00Z54203   6.460   8.403  14.813
   798G11  C0B454204   6.409   8.454  15.024
   798G11  H01054205   6.397   8.361  15.076
   798G11  C0B354206   6.423   8.581  15.096
   798G11  C0AP54207   6.469   8.648  15.221
   798G11  C0AQ54208   6.488   8.780  15.180
   798G11  C0AR54209   6.597   8.853  15.241
   798G11  C0AS54210   6.654   8.944  15.159
   798G11  C0AT54211   6.653   8.945  15.017
   798G11  C0BA54212   6.575   8.853  14.956
   798G11  C0AU54213   6.754   9.008  14.950
   798G11  C0BE54214   6.775   8.978  14.819
   798G11  C0BI54215   6.874   9.045  14.746
   798G11  C0BJ54216   6.955   9.138  14.812
   798G11  C0BK54217   7.040   9.212  14.740
   798G11  C0BW54218   7.056   9.190  14.602
   798G11  C0BV54219   6.989   9.085  14.541
   798G11  C0BU54220   7.007   9.060  14.406
   798G11  C0BX54221   6.941   8.951  14.348
   798G11  C0BT54222   7.089   9.143  14.337
   798G11  C0CD54223   7.106   9.118  14.198
   798G11  C0CB54224   7.048   9.006  14.137
   798G11  C0CE54225   7.179   9.207  14.128
   798G11  C0CK54226   7.235   9.321  14.187
   798G11  C0BS54227   7.221   9.346  14.324
   798G11  C0CJ54228   7.281   9.459  14.383
   798G11  C0BP54229   7.266   9.476  14.523
   798G11  C0CI54230   7.321   9.587  14.586
   798G11  C0CH54231   7.352   9.570  14.721
   798G11  H01254232   7.425   9.640  14.757
   798G11  C0BN54233   7.284   9.480  14.807
   798G11  C0CG54234   7.285   9.483  14.947
   798G11  C0CF54235   7.383   9.562  15.020
   798G11  H01354236   7.455   9.627  14.973
   798G11  O00G54237   7.377   9.570  15.158
   798G11  C0AA54238   7.304   9.479  15.224
   798G11  C0A954239   7.332   9.469  15.363
   798G11  H00U54240   7.399   9.537  15.414
   798G11  C0A854241   7.252   9.382  15.438
   798G11  H00V54242   7.277   9.392  15.543
   798G11  C0A754243   7.160   9.291  15.379
   798G11  C0A654244   7.134   9.304  15.240
   798G11  C0A554245   7.041   9.228  15.164
   798G11  C0A454246   6.939   9.148  15.226
   798G11  C0A354247   6.916   9.087  15.356
   798G11  C0A254248   7.022   9.082  15.449
   798G11  C0A154249   7.007   9.010  15.571
   798G11  C0A054250   6.935   8.890  15.614
   798G11  C09Z54251   6.983   8.833  15.736
   798G11  C09Y54252   6.936   8.708  15.780
   798G11  H00Y54253   6.976   8.662  15.869
   798G11  C09X54254   6.846   8.641  15.698
   798G11  C09W54255   6.813   8.512  15.734
   798G11  H00R54256   6.865   8.460  15.813
   798G11  C0AX54257   6.730   8.435  15.660
   798G11  H00S54258   6.714   8.331  15.685
   798G11  C0AW54259   6.667   8.489  15.552
   798G11  H00T54260   6.611   8.417  15.494
   798G11  C0AN54261   6.690   8.620  15.508
   798G11  C0AO54262   6.626   8.678  15.400
   798G11  C0AM54263   6.791   8.696  15.582
   798G11  C0B254264   7.075   8.893  15.829
   798G11  O00D54265   7.109   8.841  15.934
   798G11  C0B154266   7.118   9.028  15.796
   798G11  H00W54267   7.185   9.076  15.866
   798G11  C0AL54268   6.831   8.825  15.541
   798G11  C0AK54269   6.766   8.873  15.418
   798G11  C0B054270   7.090   9.077  15.667
   798G11  C0AZ54271   7.146   9.192  15.611
   798G11  H00X54272   7.205   9.258  15.672
   798G11  C0AJ54273   6.813   8.991  15.349
   798G11  C0AH54274   6.827   9.111  15.152
   798G11  C0AE54275   7.032   9.236  15.022
   798G11  C0AD54276   7.118   9.316  14.951
   798G11  C0AY54277   7.108   9.196  15.473
   798G11  C0AB54278   7.209   9.391  15.160
   798G11  C0AC54279   7.207   9.394  15.020
   798G11  C0BM54280   7.202   9.388  14.736
   798G11  C0CM54281   7.370   9.696  14.514
   798G11  C09M54282   7.394   9.682  14.370
   798G11  C09854283   7.446   9.803  14.300
   798G11  C08R54284   7.527   9.811  14.176
   798G11  C08Q54285   7.584   9.937  14.152
   798G11  C08P54286   7.705   9.981  14.080
   798G11  C08Y54287   7.782  10.074  14.148
   798G11  C09754288   7.750  10.130  14.269
   798G11  C09654289   7.862  10.153  14.341
   798G11  C09054290   7.960  10.172  14.244
   798G11  C09554291   8.098  10.187  14.273
   798G11  C09454292   8.197  10.212  14.178
   798G11  C08J54293   8.196  10.180  14.044
   798G11  C08I54294   8.331  10.150  14.003
   798G11  C08H54295   8.323  10.068  13.883
   798G11  C08G54296   8.178  10.027  13.865
   798G11  C08F54297   8.094   9.952  13.772
   798G11  C08E54298   8.141   9.927  13.643
   798G11  C05954299   8.248   9.992  13.576
   798G11  C05854300   8.268   9.963  13.437
   798G11  C05754301   8.378  10.010  13.362
   798G11  C05654302   8.471  10.083  13.434
   798G11  C05554303   8.446  10.139  13.556
   798G11  C05454304   8.572  10.167  13.617
   798G11  C05354305   8.678  10.129  13.525
   798G11  C05254306   8.825  10.123  13.536
   798G11  C05154307   8.882  10.154  13.663
   798G11  C05U54308   8.810  10.170  13.794
   798G11  C05T54309   8.673  10.158  13.840
   798G11  C06K54310   8.675  10.217  13.973
   798G11  H00J54311   8.584  10.228  14.029
   798G11  C06L54312   8.807  10.249  14.024
   798G11  H00I54313   8.831  10.287  14.122
   798G11  C05V54314   8.890  10.215  13.907
   798G11  C06J54315   9.025  10.233  13.903
   798G11  H00K54316   9.079  10.283  13.982
   798G11  C05X54317   9.098  10.210  13.783
   798G11  C06I54318   9.239  10.232  13.772
   798G11  H00L54319   9.297  10.265  13.857
   798G11  C04Z54320   9.316  10.192  13.657
   798G11  C06H54321   9.460  10.203  13.649
   798G11  H00H54322   9.505  10.256  13.732
   798G11  C04Y54323   9.534  10.159  13.534
   798G11  C06G54324   9.677  10.170  13.528
   798G11  O00954325   9.746  10.220  13.618
   798G11  O00854326   9.745  10.123  13.417
   798G11  C04P54327   9.678  10.071  13.312
   798G11  C04J54328   9.748  10.010  13.197
   798G11  C04Q54329   9.888  10.002  13.165
   798G11  H00E54330   9.954  10.042  13.241
   798G11  C04M54331   9.939   9.943  13.048
   798G11  C04R54332  10.078   9.928  13.007
   798G11  H00F54333  10.159   9.962  13.071
   798G11  C04S54334  10.116   9.883  12.885
   798G11  H00G54335  10.223   9.883  12.871
   798G11  O00754336  10.032   9.828  12.793
   798G11  C03V54337   9.896   9.834  12.830
   798G11  C03U54338   9.806   9.778  12.740
   798G11  O00654339   9.856   9.725  12.630
   798G11  C03F54340   9.777   9.659  12.541
   798G11  C03E54341   9.638   9.653  12.558
   798G11  C03D54342   9.581   9.720  12.668
   798G11  C03C54343   9.445   9.724  12.689
   798G11  C03B54344   9.367   9.659  12.584
   798G11  C03A54345   9.229   9.658  12.590
   798G11  C03954346   9.162   9.723  12.698
   798G11  C03854347   9.025   9.711  12.661
   798G11  C03754348   9.026   9.643  12.537
   798G11  C03654349   8.909   9.601  12.479
   798G11  C02R54350   8.897   9.526  12.369
   798G11  C03554351   8.759   9.510  12.361
   798G11  C03R54352   8.696   9.571  12.463
   798G11  C03S54353   8.568   9.540  12.509
   798G11  C04954354   8.537   9.587  12.634
   798G11  C04854355   8.639   9.666  12.698
   798G11  C03P54356   8.776   9.682  12.666
   798G11  C04754357   8.583   9.726  12.811
   798G11  C04654358   8.648   9.806  12.900
   798G11  C04554359   8.781   9.845  12.910
   798G11  C03T54360   8.895   9.815  12.839
   798G11  C04454361   9.006   9.879  12.895
   798G11  C04354362   8.953   9.966  12.987
   798G11  C04254363   9.049   9.989  13.090
   798G11  C04154364   9.172   9.939  13.020
   798G11  C04054365   9.304   9.953  13.080
   798G11  C03Z54366   9.429   9.912  13.022
   798G11  C04H54367   9.523   9.952  13.112
   798G11  C04G54368   9.465  10.019  13.217
   798G11  C03N54369   9.474   9.843  12.899
   798G11  C03Y54370   9.617   9.841  12.883
   798G11  C03X54371   9.709   9.889  12.980
   798G11  C04F54372   9.327  10.012  13.206
   798G11  C04E54373   9.255  10.052  13.317
   798G11  C04O54374   9.325  10.096  13.430
   798G11  C04D54375   9.116  10.046  13.327
   798G11  C04V54376   9.048  10.085  13.443
   798G11  C04W54377   9.110  10.132  13.560
   798G11  C04C54378   9.020  10.020  13.225
   798G11  C04L54379   8.888  10.040  13.296
   798G11  C04U54380   8.761  10.043  13.221
   798G11  C05Q54381   8.642  10.046  13.283
   798G11  C05P54382   8.545   9.988  13.205
   798G11  C04T54383   8.608   9.928  13.099
   798G11  C04B54384   8.739   9.968  13.106
   798G11  C03M54385   9.146   9.865  12.895
   798G11  C04A54386   8.826   9.929  13.010
   798G11  C05H54387   8.560   9.844  12.999
   798G11  C05G54388   8.439   9.772  12.985
   798G11  C05F54389   8.318   9.808  13.046
   798G11  C05E54390   8.210   9.714  13.052
   798G11  C05L54391   8.167   9.600  12.981
   798G11  C05K54392   8.232   9.552  12.860
   798G11  C05J54393   8.358   9.595  12.806
   798G11  C06654394   8.171   9.442  12.792
   798G11  C06554395   8.059   9.379  12.848
   798G11  C06454396   8.005   9.418  12.967
   798G11  C06N54397   8.008   9.263  12.788
   798G11  C06954398   8.057   9.216  12.669
   798G11  C06P54399   8.013   9.098  12.612
   798G11  C06R54400   8.070   9.045  12.498
   798G11  C06B54401   8.172   9.110  12.433
   798G11  C06S54402   8.226   9.058  12.319
   798G11  C02G54403   8.333   9.126  12.254
   798G11  C02F54404   8.390   9.069  12.139
   798G11  C02754405   8.344   8.947  12.096
   798G11  C02654406   8.412   8.881  11.991
   798G11  C00E54407   8.366   8.754  11.950
   798G11  C00D54408   8.434   8.687  11.852
   798G11  C00C54409   8.395   8.559  11.815
   798G11  C00B54410   8.301   8.485  11.878
   798G11  C01554411   8.233   8.549  11.981
   798G11  C07F54412   8.136   8.480  12.050
   798G11  C07E54413   8.071   8.546  12.153
   798G11  C06W54414   8.099   8.679  12.186
   798G11  C06V54415   8.202   8.750  12.121
   798G11  C06X54416   8.038   8.741  12.293
   798G11  C07B54417   7.941   8.666  12.359
   798G11  C07C54418   7.902   8.539  12.322
   798G11  C0FU54419   7.797   8.476  12.386
   798G11  C0F754420   7.755   8.355  12.343
   798G11  C0F654421   7.637   8.293  12.403
   798G11  C0F854422   7.602   8.171  12.354
   798G11  C0F954423   7.481   8.117  12.402
   798G11  C0FA54424   7.439   7.991  12.356
   798G11  C0FZ54425   7.515   7.924  12.260
   798G11  C0G054426   7.472   7.809  12.204
   798G11  C0GD54427   7.357   7.751  12.246
   798G11  C0FC54428   7.277   7.814  12.344
   798G11  C0GH54429   7.151   7.762  12.376
   798G11  C0EY54430   7.072   7.829  12.472
   798G11  C0EX54431   6.947   7.777  12.511
   798G11  C0EW54432   6.875   7.847  12.603
   798G11  C0FR54433   6.737   7.811  12.626
   798G11  H01D54434   6.681   7.863  12.702
   798G11  C0FS54435   6.676   7.706  12.558
   798G11  H01C54436   6.571   7.684  12.568
   798G11  C0GJ54437   6.755   7.634  12.470
   798G11  H01N54438   6.723   7.544  12.420
   798G11  C0EV54439   6.933   7.954  12.675
   798G11  C0FT54440   6.881   8.001  12.791
   798G11  H01E54441   6.807   7.936  12.837
   798G11  C0EU54442   7.056   8.011  12.626
   798G11  C0ET54443   7.107   8.127  12.687
   798G11  C0EI54444   7.225   8.186  12.655
   798G11  C0F154445   7.295   8.120  12.552
   798G11  C0F054446   7.246   8.003  12.490
   798G11  C0EH54447   7.268   8.305  12.719
   798G11  C0EG54448   7.202   8.359  12.837
   798G11  C0EJ54449   7.384   8.365  12.666
   798G11  C0F354450   7.454   8.297  12.560
   798G11  C0EK54451   7.427   8.489  12.717
   798G11  C0EL54452   7.360   8.556  12.822
   798G11  C0EM54453   7.421   8.684  12.852
   798G11  C0EN54454   7.524   8.733  12.776
   798G11  C07I54455   7.573   8.853  12.824
   798G11  C07454456   7.688   8.914  12.780
   798G11  C07354457   7.734   9.025  12.845
   798G11  C07254458   7.847   9.082  12.789
   798G11  C07554459   7.744   8.857  12.672
   798G11  C07654460   7.701   8.733  12.624
   798G11  C07854461   7.765   8.667  12.524
   798G11  C07G54462   7.855   8.914  12.621
   798G11  C07054463   7.921   8.852  12.515
   798G11  C07Z54464   7.512   8.890  12.941
   798G11  C07754465   7.596   8.666  12.682
   798G11  C0EO54466   7.542   8.541  12.652
   798G11  C0F454467   7.616   8.476  12.553
   798G11  C0EQ54468   7.045   8.181  12.797
   798G11  C0FQ54469   6.891   7.667  12.448
   798G11  C0GI54470   6.979   7.597  12.363
   798G11  H01L54471   6.956   7.506  12.310
   798G11  C0EZ54472   7.123   7.951  12.524
   798G11  C0GG54473   7.107   7.643  12.323
   798G11  C0GF54474   7.190   7.578  12.229
   798G11  H01M54475   7.144   7.487  12.194
   798G11  C0GE54476   7.314   7.629  12.196
   798G11  H01K54477   7.379   7.574  12.129
   798G11  O00J54478   7.546   7.747  12.105
   798G11  C0GA54479   7.668   7.790  12.067
   798G11  C0G954480   7.751   7.708  11.999
   798G11  H01H54481   7.711   7.611  11.976
   798G11  C0G854482   7.872   7.755  11.953
   798G11  C0G754483   7.972   7.677  11.874
   798G11  H01I54484   7.940   7.579  11.841
   798G11  O00I54485   8.086   7.732  11.824
   798G11  C0G654486   8.117   7.861  11.875
   798G11  H01J54487   8.217   7.890  11.849
   798G11  C02D54488   8.023   7.945  11.940
   798G11  C02C54489   8.050   8.084  11.963
   798G11  C01754490   8.161   8.152  11.901
   798G11  C01654491   8.185   8.284  11.928
   798G11  O00154492   8.238   8.091  11.809
   798G11  C01854493   8.347   8.141  11.744
   798G11  C00954494   8.368   8.280  11.763
   798G11  C00854495   8.473   8.357  11.701
   798G11  C00754496   8.587   8.329  11.612
   798G11  C00654497   8.627   8.199  11.576
   798G11  C00554498   8.738   8.168  11.497
   798G11  C00454499   8.855   8.246  11.469
   798G11  C00354500   8.895   8.380  11.520
   798G11  C00254501   9.029   8.424  11.497
   798G11  C00P54502   9.073   8.550  11.542
   798G11  C00O54503   9.210   8.588  11.539
   798G11  C00N54504   9.262   8.702  11.600
   798G11  C01054505   9.400   8.715  11.614
   798G11  C01154506   9.450   8.820  11.694
   798G11  C01Q54507   9.585   8.829  11.715
   798G11  C01U54508   9.675   8.730  11.670
   798G11  C01254509   9.625   8.630  11.585
   798G11  H00054510   9.698   8.557  11.554
   798G11  C01V54511   9.811   8.745  11.713
   798G11  H00754512   9.882   8.667  11.693
   798G11  O00554513   9.860   8.852  11.787
   798G11  C01W54514   9.774   8.958  11.803
   798G11  C03154515   9.831   9.082  11.840
   798G11  C03254516   9.753   9.192  11.859
   798G11  H00A54517   9.788   9.287  11.897
   798G11  C03354518   9.612   9.177  11.845
   798G11  H00B54519   9.548   9.263  11.863
   798G11  C01O54520   9.551   9.049  11.812
   798G11  C01N54521   9.418   9.032  11.810
   798G11  C01M54522   9.320   9.123  11.872
   798G11  C01L54523   9.312   9.239  11.971
   798G11  C01K54524   9.174   9.268  11.979
   798G11  C01Y54525   9.109   9.329  12.086
   798G11  C02I54526   9.191   9.386  12.183
   798G11  C02N54527   9.124   9.462  12.280
   798G11  C02M54528   9.200   9.525  12.384
   798G11  C02L54529   9.340   9.519  12.378
   798G11  C02K54530   9.404   9.439  12.278
   798G11  C02U54531   9.545   9.423  12.282
   798G11  C02V54532   9.619   9.510  12.361
   798G11  C03H54533   9.760   9.523  12.353
   798G11  H00C54534   9.805   9.465  12.274
   798G11  C02W54535   9.596   9.300  12.239
   798G11  C02X54536   9.511   9.235  12.150
   798G11  C02Y54537   9.586   9.119  12.131
   798G11  H00854538   9.562   9.032  12.072
   798G11  C02Z54539   9.722   9.126  12.202
   798G11  O00454540   9.810   9.045  12.222
   798G11  O00354541   9.717   9.244  12.259
   798G11  C02J54542   9.329   9.366  12.179
   798G11  C01Z54543   8.971   9.316  12.080
   798G11  C02054544   8.897   9.232  11.994
   798G11  C01I54545   8.969   9.168  11.899
   798G11  C01H54546   8.917   9.055  11.843
   798G11  C00K54547   9.001   8.968  11.775
   798G11  C01S54548   9.137   8.986  11.776
   798G11  C01454549   9.228   8.900  11.726
   798G11  C00J54550   8.947   8.853  11.722
   798G11  C00I54551   8.819   8.817  11.731
   798G11  C00H54552   8.740   8.900  11.814
   798G11  C00G54553   8.607   8.862  11.849
   798G11  C00S54554   8.771   8.698  11.678
   798G11  C00T54555   8.644   8.668  11.716
   798G11  C00U54556   8.594   8.544  11.670
   798G11  C00R54557   8.854   8.603  11.619
   798G11  C00L54558   9.034   8.763  11.656
   798G11  C02854559   8.788   9.017  11.867
   798G11  C02354560   8.708   9.095  11.958
   798G11  C02454561   8.583   9.050  11.994
   798G11  C02154562   8.763   9.200  12.021
   798G11  C02254563   8.695   9.270  12.118
   798G11  C02H54564   8.564   9.229  12.150
   798G11  C03054565   8.501   9.288  12.257
   798G11  C03454566   8.561   9.390  12.326
   798G11  C02P54567   8.765   9.360  12.193
   798G11  C02B54568   8.906   9.381  12.184
   798G11  C01J54569   9.107   9.193  11.886
   798G11  C01X54570   9.388   9.270  12.093
   798G11  C01T54571   9.190   9.102  11.836
   798G11  H00954572   9.939   9.093  11.842
   798G11  C01P54573   9.636   8.945  11.779
   798G11  C01R54574   9.365   8.919  11.747
   798G11  C00Z54575   9.486   8.623  11.553
   798G11  O00054576   9.439   8.525  11.471
   798G11  C00M54577   9.171   8.786  11.661
   798G11  C00Y54578   9.303   8.506  11.470
   798G11  C01354579   9.249   8.388  11.414
   798G11  H00154580   9.318   8.322  11.363
   798G11  C00Q54581   8.984   8.637  11.605
   798G11  C00154582   9.121   8.341  11.432
   798G11  C00054583   9.072   8.218  11.385
   798G11  H00654584   9.145   8.157  11.335
   798G11  C00W54585   8.809   8.473  11.580
   798G11  C01G54586   8.947   8.173  11.392
   798G11  H00554587   8.930   8.070  11.363
   798G11  C01C54588   8.711   8.039  11.446
   798G11  H00254589   8.763   7.976  11.376
   798G11  C01B54590   8.592   7.990  11.506
   798G11  C01D54591   8.537   7.857  11.486
   798G11  H00354592   8.576   7.785  11.416
   798G11  C01E54593   8.423   7.836  11.558
   798G11  H00454594   8.368   7.749  11.527
   798G11  O00254595   8.371   7.924  11.652
   798G11  C01A54596   8.539   8.085  11.593
   798G11  C00V54597   8.671   8.446  11.614
   798G11  C01954598   8.420   8.055  11.662
   798G11  C02E54599   7.975   8.150  12.056
   798G11  C0FX54600   7.863   8.093  12.111
   798G11  C0FW54601   7.787   8.162  12.201
   798G11  C0GB54602   7.826   7.967  12.065
   798G11  C0G354603   8.013   8.278  12.095
   798G11  C07H54604   7.938   8.348  12.192
   798G11  C0GC54605   7.903   7.889  11.980
   798G11  C0G254606   7.706   7.913  12.112
   798G11  C0G154607   7.633   7.978  12.212
   798G11  C0FB54608   7.320   7.937  12.393
   798G11  C0F254609   7.409   8.180  12.501
   798G11  C0FY54610   7.677   8.102  12.259
   798G11  C0F554611   7.568   8.354  12.507
   798G11  C0FV54612   7.825   8.288  12.248
   798G11  C07954613   7.728   8.542  12.487
   798G11  C07A54614   7.879   8.726  12.469
   798G11  C06Y54615   8.081   8.863  12.343
   798G11  C07D54616   7.972   8.478  12.223
   798G11  C01F54617   8.109   8.349  12.023
   798G11  C00A54618   8.282   8.349  11.854
   798G11  C00X54619   8.476   8.491  11.726
   798G11  C00F54620   8.557   8.736  11.809
   798G11  C02954621   8.262   8.682  12.012
   798G11  C02554622   8.531   8.937  11.936
   798G11  C06U54623   8.242   8.879  12.163
   798G11  C02A54624   8.510   9.116  12.095
   798G11  C05Y54625   8.386   9.234  12.315
   798G11  C05Z54626   8.330   9.288  12.430
   798G11  C06054627   8.384   9.397  12.495
   798G11  C06254628   8.342   9.449  12.615
   798G11  C06T54629   8.182   8.933  12.276
   798G11  C06A54630   8.221   9.229  12.491
   798G11  C06Z54631   8.027   8.919  12.459
   798G11  C06Q54632   7.903   9.031  12.671
   798G11  C06854633   8.169   9.280  12.609
   798G11  C06754634   8.228   9.393  12.670
   798G11  C06354635   8.053   9.530  13.031
   798G11  C06C54636   7.994   9.573  13.157
   798G11  C06D54637   8.034   9.680  13.224
   798G11  C06E54638   8.007   9.721  13.352
   798G11  C07Q54639   7.910   9.646  13.410
   798G11  C07P54640   7.850   9.540  13.342
   798G11  C07T54641   7.751   9.471  13.400
   798G11  C07U54642   7.690   9.361  13.339
   798G11  C07V54643   7.580   9.296  13.400
   798G11  C08454644   7.536   9.343  13.524
   798G11  C08C54645   7.602   9.444  13.579
   798G11  C08B54646   7.554   9.484  13.701
   798G11  C08A54647   7.613   9.592  13.763
   798G11  C08954648   7.716   9.660  13.719
   798G11  C08854649   7.778   9.765  13.792
   798G11  C08754650   7.894   9.817  13.740
   798G11  C08654651   7.942   9.780  13.613
   798G11  C08X54652   7.723   9.809  13.914
   798G11  C08T54653   7.626   9.724  13.972
   798G11  C08D54654   7.766   9.616  13.601
   798G11  C08U54655   7.568   9.629  13.888
   798G11  C08V54656   7.479   9.552  13.959
   798G11  C0CY54657   7.416   9.445  13.896
   798G11  C0CX54658   7.328   9.378  13.975
   798G11  C0CW54659   7.287   9.260  13.917
   798G11  C0CV54660   7.313   9.229  13.788
   798G11  C0D454661   7.401   9.303  13.714
   798G11  C0CU54662   7.256   9.116  13.730
   798G11  C0CT54663   7.168   9.033  13.794
   798G11  C0CS54664   7.146   9.063  13.935
   798G11  C0D654665   7.295   9.091  13.605
   798G11  C0EC54666   7.387   9.154  13.533
   798G11  C07X54667   7.429   9.123  13.401
   798G11  C0DL54668   7.245   8.978  13.539
   798G11  C0DK54669   7.280   8.948  13.412
   798G11  C0DN54670   7.210   8.839  13.383
   798G11  C0D854671   7.157   8.887  13.599
   798G11  C08W54672   7.462   9.600  14.084
   798G11  C0CQ54673   7.367   9.524  14.172
   798G11  C09354674   7.459   9.415  13.772
   798G11  C09254675   7.442   9.266  13.591
   798G11  C08554676   7.714   9.507  13.528
   798G11  C07S54677   7.872   9.684  13.538
   798G11  C06F54678   8.078   9.819  13.427
   798G11  C07O54679   7.886   9.506  13.215
   798G11  C07N54680   7.838   9.393  13.152
   798G11  C05D54681   8.138   9.754  13.166
   798G11  C05C54682   8.203   9.856  13.235
   798G11  C05N54683   8.313   9.891  13.166
   798G11  C05M54684   8.454   9.696  12.865
   798G11  C05I54685   8.412   9.547  12.686
   798G11  C06154686   8.495   9.445  12.439
   798G11  C02Q54687   8.690   9.426  12.286
   798G11  C02O54688   8.982   9.457  12.273
   798G11  C03Q54689   8.791   9.626  12.543
   798G11  C03O54690   8.898   9.735  12.728
   798G11  C03L54691   9.232   9.794  12.805
   798G11  C02S54692   9.147   9.607  12.487
   798G11  C02T54693   9.419   9.581  12.480
   798G11  C03K54694   9.382   9.787  12.802
   798G11  C03I54695   9.553   9.578  12.469
   798G11  C03G54696   9.841   9.591  12.438
   798G11  H00D54697   9.949   9.597  12.436
   798G11  C03J54698   9.669   9.778  12.766
   798G11  C03W54699   9.847   9.885  12.955
   798G11  C04I54700   9.667   9.948  13.098
   798G11  C04K54701   9.542  10.063  13.317
   798G11  C04N54702   9.466  10.105  13.428
   798G11  C04X54703   9.248  10.141  13.548
   798G11  C05054704   9.028  10.168  13.673
   798G11  C05W54705   8.911  10.085  13.432
   798G11  C05S54706   8.559  10.139  13.758
   798G11  C05R54707   8.603  10.099  13.409
   798G11  C05O54708   8.413   9.961  13.237
   798G11  C05B54709   8.177   9.882  13.373
   798G11  C05A54710   8.356  10.067  13.636
   798G11  C07R54711   8.056   9.842  13.563
   798G11  C08N54712   7.966   9.911  13.819
   798G11  C08M54713   7.907   9.958  13.937
   798G11  C08L54714   7.980  10.053  14.013
   798G11  C09154715   8.414  10.088  13.773
   798G11  C09K54716   8.400  10.126  14.129
   798G11  H00M54717   8.484  10.060  14.142
   798G11  C08K54718   8.108  10.084  13.975
   798G11  C09J54719   8.330  10.189  14.235
   798G11  C09I54720   8.309  10.183  14.376
   798G11  C09L54721   8.405  10.198  14.485
   798G11  H00N54722   8.511  10.211  14.473
   798G11  C09Q54723   8.349  10.190  14.607
   798G11  H00O54724   8.409  10.195  14.696
   798G11  O00B54725   8.211  10.179  14.633
   798G11  C09G54726   8.121  10.174  14.531
   798G11  C09F54727   7.981  10.166  14.572
   798G11  O00A54728   7.968  10.176  14.706
   798G11  C09P54729   7.842  10.189  14.752
   798G11  H00P54730   7.815  10.278  14.808
   798G11  C09O54731   7.735  10.123  14.686
   798G11  C09D54732   7.746  10.110  14.547
   798G11  C09C54733   7.642  10.059  14.455
   798G11  C09N54734   7.538   9.962  14.472
   798G11  C09T54735   7.522   9.892  14.590
   798G11  C09S54736   7.531   9.973  14.710
   798G11  C0CP54737   7.404   9.962  14.764
   798G11  C0CN54738   7.323   9.869  14.704
   798G11  C0CO54739   7.192   9.851  14.757
   798G11  H01454740   7.129   9.773  14.714
   798G11  C0CZ54741   7.156   9.927  14.869
   798G11  H01554742   7.059   9.921  14.917
   798G11  C0D054743   7.246  10.017  14.934
   798G11  C0G554744   7.213  10.095  15.049
   798G11  H01F54745   7.111  10.093  15.087
   798G11  C0G454746   7.314  10.158  15.116
   798G11  H01G54747   7.287  10.213  15.206
   798G11  O00H54748   7.444  10.173  15.074
   798G11  C0D254749   7.464  10.119  14.949
   798G11  C09V54750   7.585  10.135  14.883
   798G11  H00Q54751   7.655  10.207  14.921
   798G11  C0D154752   7.373  10.034  14.881
   798G11  C09R54753   7.614  10.080  14.753
   798G11  C09H54754   8.165  10.174  14.399
   798G11  C09E54755   7.868  10.154  14.484
   798G11  C09B54756   7.634  10.089  14.324
   798G11  C08Z54757   7.915  10.102  14.130
   798G11  C08O54758   7.779   9.916  13.981
   798G11  C09A54759   7.529  10.024  14.251
   798G11  C08S54760   7.555   9.708  14.098
   798G11  C09954761   7.466   9.942  14.347
   798G11  C09U54762   7.401   9.810  14.596
   798G11  C0BO54763   7.202   9.377  14.598
   798G11  C0CL54764   7.352   9.555  14.308
   798G11  C0D354765   7.312   9.409  14.110
   798G11  C0D554766   7.205   9.177  13.992
   798G11  C0BR54767   7.148   9.257  14.394
   798G11  C0BQ54768   7.137   9.274  14.535
   798G11  C0BL54769   7.117   9.306  14.810
   798G11  C0AF54770   6.938   9.162  14.949
   798G11  C0BH54771   6.897   9.009  14.616
   798G11  C0BG54772   6.827   8.905  14.555
   798G11  C0BD54773   6.699   8.872  14.760
   798G11  C0AG54774   6.836   9.094  15.015
   798G11  C0AI54775   6.749   9.027  15.225
   798G11  C0AV54776   6.665   8.803  15.355
   798G11  C0BB54777   6.474   8.787  15.037
   798G11  O00C54778   6.540   8.596  15.329
   798G11  C0BC54779   6.397   8.679  14.997
   798G11  C0B954780   6.598   8.804  14.829
   798G11  O00E54781   6.522   8.530  14.598
   798G11  C0CA54782   6.562   8.480  14.481
   798G11  O00F54783   6.522   8.367  14.438
   798G11  C0BF54784   6.728   8.832  14.627
   798G11  C0C554785   6.664   8.559  14.404
   798G11  C0C454786   6.702   8.522  14.273
   798G11  H01154787   6.659   8.433  14.228
   798G11  C0C854788   6.858   8.871  14.426
   798G11  C0C254789   6.777   8.608  14.191
   798G11  C0C354790   6.799   8.587  14.051
   798G11  C0DY54791   6.740   8.500  13.974
   798G11  H01654792   6.661   8.428  13.987
   798G11  C0DX54793   6.797   8.517  13.845
   798G11  C0DW54794   6.804   8.404  13.761
   798G11  C0BY54795   6.965   8.921  14.214
   798G11  C0DB54796   6.878   8.672  13.976
   798G11  C0CC54797   7.067   8.976  14.003
   798G11  C0D754798   7.110   8.916  13.735
   798G11  C0DZ54799   6.890   8.630  13.844
   798G11  C0DM54800   7.126   8.795  13.492
   798G11  C0DQ54801   6.930   8.510  13.563
   798G11  C0DV54802   6.865   8.413  13.635
   798G11  C0E054803   6.754   8.268  13.779
   798G11  C0FO54804   6.635   8.074  13.526
   798G11  C0E354805   6.627   8.213  13.829
   798G11  H01754806   6.554   8.267  13.887
   798G11  C0GV54807   6.506   8.045  13.561
   798G11  C0ES54808   6.664   8.110  13.394
   798G11  C0GQ54809   6.346   8.030  13.241
   798G11  C0FJ54810   6.527   8.106  12.928
   798G11  C0ED54811   6.724   8.176  13.115
   798G11  C0ER54812   6.932   8.121  12.836
   798G11  C0EP54813   7.076   8.289  12.870
   798G11  C0E654814   6.912   8.326  13.216
   798G11  C0DE54815   7.091   8.585  13.230
   798G11  C0EA54816   7.250   8.484  12.893
   798G11  C0DF54817   7.146   8.704  13.181
   798G11  C08054818   7.413   8.784  12.947
   798G11  C0DO54819   7.227   8.797  13.250
   798G11  C0DJ54820   7.375   9.018  13.335
   798G11  C07K54821   7.565   9.005  13.017
   798G11  C07W54822   7.528   9.188  13.332
   798G11  C08354823   7.735   9.325  13.211
   798G11  C07J54824   7.668   9.075  12.958
   798G11  C06O54825   7.901   9.199  12.845
   798G11  C06M54826   7.896   9.352  13.029
   808G11  C07154827   3.819   4.078  12.707
   808G11  C07L54828   3.938   4.137  12.652
   808G11  C07M54829   4.029   4.057  12.585
   808G11  C07Y54830   4.134   4.116  12.511
   808G11  C08154831   4.168   4.256  12.522
   808G11  C08254832   4.274   4.303  12.447
   808G11  C0DI54833   4.329   4.440  12.431
   808G11  C0DH54834   4.293   4.571  12.491
   808G11  C0DG54835   4.387   4.669  12.459
   808G11  C0E954836   4.385   4.811  12.438
   808G11  C0E854837   4.497   4.832  12.338
   808G11  C0E754838   4.560   4.966  12.298
   808G11  C0EB54839   4.520   5.090  12.363
   808G11  C0EF54840   4.582   5.221  12.333
   808G11  C0EE54841   4.631   5.278  12.216
   808G11  C0FD54842   4.582   5.408  12.179
   808G11  C0FE54843   4.458   5.466  12.220
   808G11  H01B54844   4.386   5.405  12.273
   808G11  C0FF54845   4.439   5.599  12.205
   808G11  H01A54846   4.348   5.641  12.246
   808G11  C0FG54847   4.532   5.678  12.133
   808G11  H01854848   4.491   5.777  12.133
   808G11  C0FH54849   4.639   5.620  12.064
   808G11  C0FI54850   4.719   5.682  11.966
   808G11  H01954851   4.682   5.781  11.943
   808G11  O00K54852   4.829   5.627  11.909
   808G11  C0FL54853   4.861   5.498  11.942
   808G11  C0FK54854   4.774   5.421  12.029
   808G11  C0FM54855   4.814   5.291  12.057
   808G11  C0FN54856   4.939   5.247  12.008
   808G11  C0FP54857   5.013   5.324  11.918
   808G11  C0GO54858   5.111   5.270  11.842
   808G11  C0GN54859   5.168   5.325  11.730
   808G11  C0GR54860   5.123   5.457  11.700
   808G11  C0GS54861   5.169   5.527  11.588
   808G11  H01Q54862   5.133   5.626  11.565
   808G11  C0GT54863   5.243   5.448  11.494
   808G11  H01O54864   5.280   5.503  11.409
   808G11  C0GU54865   5.265   5.311  11.513
   808G11  H01P54866   5.325   5.254  11.442
   808G11  O00L54867   5.049   5.523  11.787
   808G11  C0GM54868   5.244   5.249  11.640
   808G11  C0GL54869   5.283   5.119  11.685
   808G11  H01R54870   5.337   5.049  11.623
   808G11  C0GK54871   5.247   5.067  11.812
   808G11  C0GP54872   5.262   4.944  11.890
   808G11  C0E254873   5.197   4.967  12.020
   808G11  C0E154874   5.151   4.841  12.074
   808G11  C0DU54875   5.012   4.820  12.110
   808G11  C0DT54876   4.906   4.907  12.149
   808G11  C0E454877   4.888   5.038  12.121
   808G11  C0E554878   4.770   5.082  12.166
   808G11  C0DS54879   4.782   4.856  12.192
   808G11  C0DR54880   4.759   4.720  12.162
   808G11  C0DD54881   4.645   4.650  12.191
   808G11  C0DC54882   4.668   4.514  12.140
   808G11  C0DP54883   4.795   4.506  12.066
   808G11  C0DA54884   4.858   4.392  11.993
   808G11  C0D954885   4.816   4.245  11.985
   808G11  C0CR54886   4.880   4.155  11.892
   808G11  C0C054887   4.975   4.205  11.798
   808G11  C0BZ54888   5.039   4.132  11.701
   808G11  C0C154889   5.132   4.192  11.608
   808G11  C0C754890   5.186   4.121  11.501
   808G11  C0C654891   5.264   4.178  11.400
   808G11  C0C954892   5.310   4.104  11.297
   808G11  C0B854893   5.378   4.169  11.188
   808G11  C0B754894   5.419   4.106  11.075
   808G11  C0B654895   5.481   4.147  10.954
   808G11  C0B554896   5.435   4.263  10.879
   808G11  H00Z54897   5.375   4.346  10.913
   808G11  C0B454898   5.457   4.225  10.738
   808G11  H01054899   5.414   4.282  10.657
   808G11  C0B354900   5.526   4.096  10.732
   808G11  C0AP54901   5.552   3.970  10.651
   808G11  C0AQ54902   5.543   3.876  10.751
   808G11  C0AR54903   5.481   3.755  10.723
   808G11  C0AS54904   5.423   3.702  10.835
   808G11  C0AT54905   5.401   3.754  10.957
   808G11  C0BA54906   5.449   3.879  10.980
   808G11  C0AU54907   5.318   3.699  11.051
   808G11  C0BE54908   5.279   3.769  11.161
   808G11  C0BI54909   5.191   3.713  11.251
   808G11  C0BJ54910   5.131   3.590  11.229
   808G11  C0BK54911   5.055   3.526  11.321
   808G11  C0BW54912   5.033   3.586  11.444
   808G11  C0BV54913   5.078   3.717  11.464
   808G11  C0BU54914   5.032   3.790  11.573
   808G11  C0BX54915   5.065   3.925  11.587
   808G11  C0BT54916   4.948   3.732  11.664
   808G11  C0CD54917   4.893   3.806  11.767
   808G11  C0CB54918   4.921   3.942  11.784
   808G11  C0CE54919   4.799   3.747  11.854
   808G11  C0CK54920   4.766   3.609  11.837
   808G11  C0BS54921   4.820   3.530  11.738
   808G11  C0CJ54922   4.775   3.393  11.717
   808G11  C0BP54923   4.831   3.319  11.607
   808G11  C0CI54924   4.804   3.183  11.583
   808G11  C0CH54925   4.876   3.123  11.475
   808G11  H01254926   4.873   3.016  11.468
   808G11  C0BN54927   4.923   3.198  11.367
   808G11  C0CG54928   4.939   3.139  11.241
   808G11  C0CF54929   4.898   3.004  11.209
   808G11  H01354930   4.864   2.936  11.285
   808G11  O00G54931   4.889   2.953  11.081
   808G11  C0AA54932   4.924   3.044  10.983
   808G11  C0A954933   4.896   3.007  10.854
   808G11  H00U54934   4.837   2.918  10.840
   808G11  C0A854935   4.945   3.078  10.747
   808G11  H00V54936   4.923   3.025  10.656
   808G11  C0A754937   5.031   3.191  10.760
   808G11  C0A654938   5.048   3.241  10.901
   808G11  C0A554939   5.116   3.357  10.933
   808G11  C0A454940   5.210   3.421  10.846
   808G11  C0A354941   5.252   3.415  10.710
   808G11  C0A254942   5.177   3.346  10.611
   808G11  C0A154943   5.209   3.344  10.472
   808G11  C0A054944   5.302   3.427  10.390
   808G11  C09Z54945   5.313   3.386  10.253
   808G11  C09Y54946   5.387   3.462  10.159
   808G11  H00Y54947   5.399   3.431  10.057
   808G11  C09X54948   5.449   3.578  10.200
   808G11  C09W54949   5.522   3.650  10.105
   808G11  H00R54950   5.531   3.602  10.008
   808G11  C0AX54951   5.583   3.769  10.131
   808G11  H00S54952   5.654   3.816  10.064
   808G11  C0AW54953   5.565   3.817  10.258
   808G11  H00T54954   5.616   3.910  10.281
   808G11  C0AN54955   5.492   3.751  10.360
   808G11  C0AO54956   5.492   3.800  10.491
   808G11  C0AM54957   5.433   3.626  10.330
   808G11  C0B254958   5.248   3.270  10.194
   808G11  O00D54959   5.268   3.232  10.079
   808G11  C0B154960   5.158   3.196  10.269
   808G11  H00W54961   5.101   3.119  10.219
   808G11  C0AL54962   5.368   3.547  10.430
   808G11  C0AK54963   5.387   3.593  10.564
   808G11  C0B054964   5.134   3.240  10.406
   808G11  C0AZ54965   5.049   3.184  10.509
   808G11  H00X54966   4.982   3.106  10.476
   808G11  C0AJ54967   5.343   3.523  10.679
   808G11  C0AH54968   5.288   3.520  10.902
   808G11  C0AE54969   5.103   3.408  11.067
   808G11  C0AD54970   5.034   3.342  11.164
   808G11  C0AY54971   5.078   3.245  10.635
   808G11  C0AB54972   4.987   3.174  11.004
   808G11  C0AC54973   4.993   3.214  11.135
   808G11  C0BM54974   4.947   3.327  11.389
   808G11  C0CM54975   4.703   3.118  11.661
   808G11  C09M54976   4.656   3.184  11.783
   808G11  C09854977   4.590   3.103  11.877
   808G11  C08R54978   4.495   3.128  11.988
   808G11  C08Q54979   4.466   3.019  12.067
   808G11  C08P54980   4.340   2.975  12.134
   808G11  C08Y54981   4.316   2.837  12.139
   808G11  C09754982   4.379   2.757  12.048
   808G11  C09654983   4.299   2.658  11.995
   808G11  C09054984   4.185   2.663  12.084
   808G11  C09554985   4.054   2.589  12.062
   808G11  C09454986   3.942   2.584  12.151
   808G11  C08J54987   3.902   2.689  12.239
   808G11  C08I54988   3.764   2.698  12.231
   808G11  C08H54989   3.724   2.829  12.274
   808G11  C08G54990   3.845   2.910  12.281
   808G11  C08F54991   3.886   3.035  12.342
   808G11  C08E54992   3.801   3.111  12.431
   808G11  C05954993   3.677   3.071  12.487
   808G11  C05854994   3.612   3.150  12.585
   808G11  C05754995   3.489   3.120  12.643
   808G11  C05654996   3.433   2.994  12.597
   808G11  C05554997   3.494   2.903  12.527
   808G11  C05454998   3.394   2.818  12.465
   808G11  C05354999   3.266   2.878  12.488
   808G11  C05255000   3.134   2.869  12.425
   808G11  C05155001   3.122   2.796  12.303
   808G11  C05U55002   3.225   2.734  12.226
   808G11  C05T55003   3.365   2.721  12.241
   808G11  C06K55004   3.404   2.613  12.159
   808G11  H00J55005   3.504   2.574  12.161
   808G11  C06L55006   3.299   2.563  12.076
   808G11  H00I55007   3.291   2.484  12.003
   808G11  C05V55008   3.193   2.648  12.117
   808G11  C06J55009   3.065   2.631  12.065
   808G11  H00K55010   3.054   2.564  11.981
   808G11  C05X55011   2.959   2.695  12.132
   808G11  C06I55012   2.827   2.693  12.076
   808G11  H00L55013   2.807   2.643  11.982
   808G11  C04Z55014   2.718   2.753  12.142
   808G11  C06H55015   2.589   2.754  12.078
   808G11  H00H55016   2.570   2.706  11.983
   808G11  C04Y55017   2.487   2.822  12.145
   808G11  C06G55018   2.367   2.826  12.073
   808G11  O00955019   2.357   2.791  11.957
   808G11  O00855020   2.256   2.881  12.131
   808G11  C04P55021   2.283   2.956  12.246
   808G11  C04J55022   2.180   3.040  12.300
   808G11  C04Q55023   2.047   3.059  12.255
   808G11  H00E55024   2.021   3.011  12.161
   808G11  C04M55025   1.946   3.121  12.333
   808G11  C04R55026   1.807   3.117  12.307
   808G11  H00F55027   1.759   3.067  12.224
   808G11  C04S55028   1.723   3.189  12.384
   808G11  H00G55029   1.619   3.205  12.363
   808G11  O00755030   1.757   3.262  12.498
   808G11  C03V55031   1.891   3.253  12.533
   808G11  C03U55032   1.935   3.339  12.630
   808G11  O00655033   1.842   3.404  12.710
   808G11  C03F55034   1.886   3.519  12.771
   808G11  C03E55035   2.023   3.541  12.798
   808G11  C03D55036   2.117   3.455  12.750
   808G11  C03C55037   2.251   3.467  12.780
   808G11  C03B55038   2.282   3.578  12.854
   808G11  C03A55039   2.414   3.589  12.911
   808G11  C03955040   2.518   3.498  12.872
   808G11  C03855041   2.638   3.563  12.915
   808G11  C03755042   2.589   3.680  12.980
   808G11  C03655043   2.673   3.764  13.044
   808G11  C02R55044   2.651   3.875  13.113
   808G11  C03555045   2.782   3.925  13.142
   808G11  C03R55046   2.876   3.843  13.093
   808G11  C03S55047   3.008   3.876  13.072
   808G11  C04955048   3.081   3.787  13.000
   808G11  C04855049   3.012   3.674  12.955
   808G11  C03P55050   2.869   3.645  12.961
   808G11  C04755051   3.103   3.579  12.904
   808G11  C04655052   3.070   3.448  12.863
   808G11  C04555053   2.947   3.380  12.852
   808G11  C03T55054   2.820   3.423  12.863
   808G11  C04455055   2.735   3.321  12.813
   808G11  C04355056   2.819   3.202  12.797
   808G11  C04255057   2.763   3.123  12.694
   808G11  C04155058   2.622   3.167  12.691
   808G11  C04055059   2.512   3.115  12.606
   808G11  C03Z55060   2.384   3.172  12.590
   808G11  C04H55061   2.332   3.102  12.476
   808G11  C04G55062   2.423   3.014  12.431
   808G11  C03N55063   2.301   3.272  12.648
   808G11  C03Y55064   2.165   3.267  12.601
   808G11  C03X55065   2.117   3.189  12.491
   808G11  C04F55066   2.538   3.025  12.501
   808G11  C04E55067   2.650   2.954  12.449
   808G11  C04O55068   2.634   2.880  12.328
   808G11  C04D55069   2.784   2.964  12.500
   808G11  C04V55070   2.893   2.905  12.425
   808G11  C04W55071   2.877   2.833  12.305
   808G11  C04C55072   2.837   3.025  12.617
   808G11  C04L55073   2.980   2.995  12.607
   808G11  C04U55074   3.080   3.072  12.681
   808G11  C05Q55075   3.215   3.059  12.670
   808G11  C05P55076   3.279   3.167  12.734
   808G11  C04T55077   3.182   3.253  12.784
   808G11  C04B55078   3.064   3.185  12.762
   808G11  C03M55079   2.600   3.293  12.769
   808G11  C04A55080   2.945   3.251  12.802
   808G11  C05H55081   3.191   3.382  12.834
   808G11  C05G55082   3.298   3.476  12.841
   808G11  C05F55083   3.439   3.450  12.826
   808G11  C05E55084   3.531   3.556  12.792
   808G11  C05L55085   3.535   3.698  12.799
   808G11  C05K55086   3.435   3.772  12.861
   808G11  C05J55087   3.305   3.735  12.902
   808G11  C06655088   3.469   3.912  12.880
   808G11  C06555089   3.584   3.968  12.824
   808G11  C06455090   3.680   3.890  12.760
   808G11  C06N55091   3.611   4.104  12.839
   808G11  C06955092   3.520   4.189  12.900
   808G11  C06P55093   3.541   4.329  12.900
   808G11  C06R55094   3.445   4.420  12.952
   808G11  C06B55095   3.332   4.368  13.004
   808G11  C06S55096   3.238   4.463  13.052
   808G11  C02G55097   3.119   4.414  13.100
   808G11  C02F55098   3.015   4.498  13.136
   808G11  C02755099   3.035   4.635  13.126
   808G11  C02655100   2.938   4.720  13.174
   808G11  C00E55101   2.957   4.854  13.158
   808G11  C00D55102   2.855   4.942  13.190
   808G11  C00C55103   2.869   5.072  13.164
   808G11  C00B55104   2.976   5.127  13.098
   808G11  C01555105   3.082   5.043  13.067
   808G11  C07F55106   3.193   5.088  13.010
   808G11  C07E55107   3.301   5.006  12.984
   808G11  C06W55108   3.287   4.871  13.005
   808G11  C06V55109   3.176   4.823  13.064
   808G11  C06X55110   3.384   4.785  12.970
   808G11  C07B55111   3.500   4.835  12.910
   808G11  C07C55112   3.515   4.972  12.890
   808G11  C0FU55113   3.628   5.020  12.826
   808G11  C0F755114   3.645   5.155  12.814
   808G11  C0F655115   3.762   5.202  12.756
   808G11  C0F855116   3.779   5.337  12.742
   808G11  C0F955117   3.898   5.391  12.694
   808G11  C0FA55118   3.912   5.528  12.682
   808G11  C0FZ55119   3.804   5.608  12.702
   808G11  C0G055120   3.810   5.742  12.661
   808G11  C0GD55121   3.923   5.795  12.598
   808G11  C0FC55122   4.039   5.713  12.596
   808G11  C0GH55123   4.161   5.766  12.557
   808G11  C0EY55124   4.275   5.685  12.565
   808G11  C0EX55125   4.400   5.741  12.540
   808G11  C0EW55126   4.511   5.659  12.533
   808G11  C0FR55127   4.642   5.716  12.511
   808G11  H01D55128   4.727   5.650  12.511
   808G11  C0FS55129   4.658   5.851  12.490
   808G11  H01C55130   4.758   5.890  12.480
   808G11  C0GJ55131   4.544   5.930  12.484
   808G11  H01N55132   4.554   6.034  12.458
   808G11  C0EV55133   4.491   5.524  12.534
   808G11  C0FT55134   4.590   5.439  12.476
   808G11  H01E55135   4.685   5.468  12.434
   808G11  C0EU55136   4.364   5.468  12.563
   808G11  C0ET55137   4.338   5.331  12.548
   808G11  C0EI55138   4.221   5.267  12.578
   808G11  C0F155139   4.119   5.353  12.620
   808G11  C0F055140   4.132   5.497  12.611
   808G11  C0EH55141   4.203   5.129  12.560
   808G11  C0EG55142   4.303   5.044  12.504
   808G11  C0EJ55143   4.089   5.077  12.617
   808G11  C0F355144   3.985   5.165  12.665
   808G11  C0EK55145   4.065   4.942  12.626
   808G11  C0EL55146   4.160   4.852  12.566
   808G11  C0EM55147   4.125   4.713  12.594
   808G11  C0EN55148   4.021   4.675  12.679
   808G11  C07I55149   3.993   4.542  12.682
   808G11  C07455150   3.876   4.486  12.731
   808G11  C07355151   3.863   4.351  12.727
   808G11  C07255152   3.749   4.300  12.785
   808G11  C07555153   3.787   4.574  12.785
   808G11  C07655154   3.804   4.711  12.762
   808G11  C07855155   3.708   4.797  12.806
   808G11  C07G55156   3.674   4.521  12.837
   808G11  C07055157   3.581   4.609  12.889
   808G11  C07Z55158   4.094   4.480  12.607
   808G11  C07755159   3.920   4.763  12.711
   808G11  C0EO55160   3.949   4.894  12.693
   808G11  C0F455161   3.849   4.981  12.732
   808G11  C0EQ55162   4.437   5.253  12.492
   808G11  C0FQ55163   4.418   5.874  12.502
   808G11  C0GI55164   4.301   5.946  12.487
   808G11  H01L55165   4.308   6.045  12.444
   808G11  C0EZ55166   4.255   5.548  12.582
   808G11  C0GG55167   4.173   5.898  12.512
   808G11  C0GF55168   4.048   5.968  12.494
   808G11  H01M55169   4.057   6.065  12.447
   808G11  C0GE55170   3.927   5.923  12.543
   808G11  H01K55171   3.835   5.980  12.546
   808G11  O00J55172   3.712   5.828  12.693
   808G11  C0GA55173   3.597   5.778  12.748
   808G11  C0G955174   3.497   5.868  12.767
   808G11  H01H55175   3.515   5.973  12.750
   808G11  C0G855176   3.369   5.827  12.813
   808G11  C0G755177   3.257   5.908  12.832
   808G11  H01I55178   3.263   6.011  12.799
   808G11  O00I55179   3.146   5.867  12.893
   808G11  C0G655180   3.135   5.735  12.931
   808G11  H01J55181   3.045   5.714  12.986
   808G11  C02D55182   3.241   5.640  12.905
   808G11  C02C55183   3.220   5.500  12.925
   808G11  C01755184   3.100   5.446  12.977
   808G11  C01655185   3.094   5.311  13.006
   808G11  O00155186   2.986   5.522  12.988
   808G11  C01855187   2.869   5.473  13.033
   808G11  C00955188   2.863   5.342  13.091
   808G11  C00855189   2.753   5.288  13.165
   808G11  C00755190   2.621   5.341  13.195
   808G11  C00655191   2.560   5.442  13.127
   808G11  C00555192   2.423   5.489  13.143
   808G11  C00455193   2.308   5.413  13.193
   808G11  C00355194   2.294   5.269  13.229
   808G11  C00255195   2.167   5.214  13.249
   808G11  C00P55196   2.149   5.075  13.265
   808G11  C00O55197   2.019   5.019  13.255
   808G11  C00N55198   2.001   4.879  13.253
   808G11  C01055199   1.874   4.823  13.238
   808G11  C01155200   1.854   4.686  13.224
   808G11  C01Q55201   1.725   4.631  13.193
   808G11  C01U55202   1.613   4.713  13.194
   808G11  C01255203   1.638   4.855  13.225
   808G11  H00055204   1.553   4.921  13.238
   808G11  C01V55205   1.492   4.649  13.167
   808G11  H00755206   1.406   4.715  13.175
   808G11  O00555207   1.478   4.518  13.131
   808G11  C01W55208   1.582   4.440  13.152
   808G11  C03155209   1.561   4.298  13.149
   808G11  C03255210   1.668   4.213  13.163
   808G11  H00A55211   1.654   4.106  13.155
   808G11  C03355212   1.792   4.267  13.187
   808G11  H00B55213   1.872   4.202  13.219
   808G11  C01O55214   1.821   4.405  13.190
   808G11  C01N55215   1.948   4.455  13.204
   808G11  C01M55216   2.072   4.374  13.200
   808G11  C01L55217   2.118   4.236  13.169
   808G11  C01K55218   2.245   4.237  13.210
   808G11  C01Y55219   2.339   4.141  13.182
   808G11  C02I55220   2.304   4.026  13.114
   808G11  C02N55221   2.405   3.930  13.085
   808G11  C02M55222   2.368   3.814  13.009
   808G11  C02L55223   2.231   3.789  12.973
   808G11  C02K55224   2.144   3.896  12.988
   808G11  C02U55225   2.015   3.877  12.937
   808G11  C02V55226   1.967   3.754  12.894
   808G11  C03H55227   1.830   3.726  12.873
   808G11  H00C55228   1.754   3.799  12.896
   808G11  C02W55229   1.937   3.990  12.919
   808G11  C02X55230   1.971   4.108  12.980
   808G11  C02Y55231   1.882   4.206  12.920
   808G11  H00855232   1.879   4.312  12.937
   808G11  C02Z55233   1.794   4.130  12.822
   808G11  O00455234   1.707   4.172  12.747
   808G11  O00355235   1.831   4.002  12.835
   808G11  C02J55236   2.175   4.013  13.060
   808G11  C01Z55237   2.471   4.182  13.202
   808G11  C02055238   2.508   4.307  13.247
   808G11  C01I55239   2.412   4.405  13.282
   808G11  C01H55240   2.432   4.540  13.291
   808G11  C00K55241   2.325   4.628  13.284
   808G11  C01S55242   2.198   4.582  13.275
   808G11  C01455243   2.087   4.656  13.262
   808G11  C00J55244   2.341   4.763  13.284
   808G11  C00I55245   2.473   4.809  13.281
   808G11  C00H55246   2.579   4.718  13.267
   808G11  C00G55247   2.708   4.758  13.241
   808G11  C00S55248   2.490   4.947  13.277
   808G11  C00T55249   2.621   4.983  13.262
   808G11  C00U55250   2.647   5.118  13.253
   808G11  C00R55251   2.385   5.041  13.280
   808G11  C00L55252   2.233   4.845  13.286
   808G11  C02855253   2.558   4.585  13.273
   808G11  C02355254   2.659   4.495  13.249
   808G11  C02455255   2.787   4.538  13.217
   808G11  C02155256   2.637   4.361  13.233
   808G11  C02255257   2.737   4.270  13.202
   808G11  C02H55258   2.867   4.319  13.182
   808G11  C03055259   2.972   4.233  13.150
   808G11  C03455260   2.942   4.096  13.143
   808G11  C02P55261   2.703   4.137  13.183
   808G11  C02B55262   2.571   4.089  13.166
   808G11  C01J55263   2.281   4.360  13.269
   808G11  C01X55264   2.083   4.128  13.068
   808G11  C01T55265   2.180   4.446  13.246
   808G11  H00955266   1.461   4.264  13.129
   808G11  C01P55267   1.712   4.491  13.177
   808G11  C01R55268   1.965   4.596  13.233
   808G11  C00Z55269   1.767   4.910  13.232
   808G11  O00055270   1.783   5.049  13.228
   808G11  C00M55271   2.109   4.792  13.265
   808G11  C00Y55272   1.910   5.100  13.241
   808G11  C01355273   1.924   5.239  13.240
   808G11  H00155274   1.840   5.306  13.226
   808G11  C00Q55275   2.256   4.987  13.279
   808G11  C00155276   2.048   5.298  13.238
   808G11  C00055277   2.071   5.436  13.235
   808G11  H00655278   1.981   5.495  13.235
   808G11  C00W55279   2.404   5.181  13.253
   808G11  C01G55280   2.192   5.489  13.200
   808G11  H00555281   2.190   5.596  13.182
   808G11  C01C55282   2.406   5.608  13.067
   808G11  H00255283   2.309   5.654  13.053
   808G11  C01B55284   2.528   5.644  13.014
   808G11  C01D55285   2.557   5.766  12.948
   808G11  H00355286   2.492   5.851  12.937
   808G11  C01E55287   2.689   5.780  12.917
   808G11  H00455288   2.723   5.875  12.877
   808G11  O00255289   2.786   5.673  12.927
   808G11  C01A55290   2.625   5.551  13.053
   808G11  C00V55291   2.544   5.221  13.233
   808G11  C01955292   2.760   5.564  13.011
   808G11  C02E55293   3.329   5.417  12.906
   808G11  C0FX55294   3.448   5.464  12.849
   808G11  C0FW55295   3.558   5.377  12.823
   808G11  C0GB55296   3.456   5.599  12.814
   808G11  C0G355297   3.319   5.278  12.928
   808G11  C07H55298   3.426   5.193  12.900
   808G11  C0GC55299   3.350   5.690  12.842
   808G11  C0G255300   3.578   5.643  12.773
   808G11  C0G155301   3.685   5.560  12.750
   808G11  C0FB55302   4.030   5.580  12.632
   808G11  C0F255303   3.995   5.301  12.657
   808G11  C0FY55304   3.674   5.424  12.772
   808G11  C0F555305   3.862   5.118  12.718
   808G11  C0FV55306   3.543   5.246  12.850
   808G11  C07955307   3.728   4.932  12.792
   808G11  C07A55308   3.598   4.747  12.870
   808G11  C06Y55309   3.369   4.644  12.987
   808G11  C07D55310   3.411   5.059  12.926
   808G11  C01F55311   3.203   5.226  12.979
   808G11  C00A55312   2.976   5.258  13.065
   808G11  C00X55313   2.770   5.159  13.211
   808G11  C00F55314   2.731   4.893  13.231
   808G11  C02955315   3.071   4.904  13.099
   808G11  C02555316   2.816   4.672  13.211
   808G11  C06U55317   3.157   4.688  13.080
   808G11  C02A55318   2.889   4.453  13.178
   808G11  C05Y55319   3.094   4.277  13.107
   808G11  C05Z55320   3.193   4.188  13.060
   808G11  C06055321   3.165   4.049  13.060
   808G11  C06255322   3.251   3.956  12.997
   808G11  C06T55323   3.256   4.597  13.041
   808G11  C06A55324   3.311   4.231  13.006
   808G11  C06Z55325   3.469   4.558  12.945
   808G11  C06Q55326   3.654   4.385  12.843
   808G11  C06855327   3.401   4.136  12.950
   808G11  C06755328   3.375   3.999  12.948
   808G11  C06355329   3.656   3.756  12.751
   808G11  C06C55330   3.757   3.675  12.689
   808G11  C06D55331   3.741   3.539  12.671
   808G11  C06E55332   3.818   3.454  12.593
   808G11  C07Q55333   3.929   3.509  12.534
   808G11  C07P55334   3.960   3.645  12.560
   808G11  C07T55335   4.072   3.700  12.493
   808G11  C07U55336   4.093   3.839  12.500
   808G11  C07V55337   4.207   3.897  12.443
   808G11  C08455338   4.291   3.814  12.365
   808G11  C08C55339   4.260   3.677  12.355
   808G11  C08B55340   4.337   3.602  12.271
   808G11  C08A55341   4.307   3.468  12.263
   808G11  C08955342   4.198   3.404  12.316
   808G11  C08855343   4.164   3.270  12.277
   808G11  C08755344   4.050   3.214  12.332
   808G11  C08655345   3.969   3.292  12.416
   808G11  C08X55346   4.246   3.197  12.191
   808G11  C08T55347   4.341   3.270  12.116
   808G11  C08D55348   4.123   3.482  12.402
   808G11  C08U55349   4.358   3.402  12.151
   808G11  C08V55350   4.459   3.457  12.074
   808G11  C0CY55351   4.501   3.589  12.090
   808G11  C0CX55352   4.604   3.638  12.010
   808G11  C0CW55353   4.635   3.768  12.027
   808G11  C0CV55354   4.563   3.845  12.112
   808G11  C0D455355   4.466   3.788  12.197
   808G11  C0CU55356   4.588   3.979  12.117
   808G11  C0CT55357   4.686   4.041  12.043
   808G11  C0CS55358   4.762   3.961  11.959
   808G11  C0D655359   4.511   4.050  12.205
   808G11  C0EC55360   4.413   4.001  12.295
   808G11  C07X55361   4.325   4.082  12.366
   808G11  C0DL55362   4.527   4.186  12.207
   808G11  C0DK55363   4.449   4.263  12.287
   808G11  C0DN55364   4.499   4.388  12.266
   808G11  C0D855365   4.616   4.260  12.131
   808G11  C08W55366   4.507   3.368  11.978
   808G11  C0CQ55367   4.623   3.415  11.900
   808G11  C09355368   4.434   3.659  12.188
   808G11  C09255369   4.393   3.869  12.290
   808G11  C08555370   4.153   3.617  12.419
   808G11  C07S55371   4.008   3.427  12.454
   808G11  C06F55372   3.784   3.320  12.557
   808G11  C07O55373   3.866   3.729  12.627
   808G11  C07N55374   3.892   3.862  12.637
   808G11  C05D55375   3.637   3.480  12.735
   808G11  C05C55376   3.607   3.345  12.714
   808G11  C05N55377   3.480   3.329  12.756
   808G11  C05M55378   3.241   3.599  12.878
   808G11  C05I55379   3.212   3.823  12.965
   808G11  C06155380   3.040   4.006  13.099
   808G11  C02Q55381   2.810   4.055  13.165
   808G11  C02O55382   2.535   3.961  13.127
   808G11  C03Q55383   2.810   3.742  13.039
   808G11  C03O55384   2.783   3.543  12.910
   808G11  C03L55385   2.490   3.380  12.797
   808G11  C02S55386   2.455   3.706  12.974
   808G11  C02T55387   2.191   3.671  12.901
   808G11  C03K55388   2.349   3.366  12.750
   808G11  C03I55389   2.061   3.652  12.863
   808G11  C03G55390   1.788   3.611  12.807
   808G11  H00D55391   1.682   3.590  12.799
   808G11  C03J55392   2.075   3.358  12.658
   808G11  C03W55393   1.987   3.189  12.449
   808G11  C04I55394   2.204   3.108  12.418
   808G11  C04K55395   2.400   2.953  12.312
   808G11  C04N55396   2.508   2.884  12.265
   808G11  C04X55397   2.745   2.823  12.261
   808G11  C05055398   2.990   2.775  12.245
   808G11  C05W55399   3.021   2.923  12.486
   808G11  C05S55400   3.452   2.794  12.336
   808G11  C05R55401   3.294   2.970  12.596
   808G11  C05O55402   3.414   3.209  12.716
   808G11  C05B55403   3.670   3.269  12.617
   808G11  C05A55404   3.601   2.953  12.448
   808G11  C07R55405   3.851   3.241  12.463
   808G11  C08N55406   4.013   3.086  12.296
   808G11  C08M55407   4.108   3.003  12.226
   808G11  C08L55408   4.084   2.868  12.212
   808G11  C09155409   3.590   2.862  12.340
   808G11  C09K55410   3.723   2.634  12.104
   808G11  H00M55411   3.641   2.659  12.039
   808G11  C08K55412   3.952   2.821  12.242
   808G11  C09J55413   3.822   2.543  12.074
   808G11  C09I55414   3.881   2.487  11.949
   808G11  C09L55415   3.821   2.401  11.854
   808G11  H00N55416   3.716   2.377  11.863
   808G11  C09Q55417   3.902   2.346  11.760
   808G11  H00O55418   3.865   2.278  11.685
   808G11  O00B55419   4.039   2.370  11.755
   808G11  C09G55420   4.096   2.469  11.836
   808G11  C09F55421   4.235   2.490  11.804
   808G11  O00A55422   4.280   2.421  11.692
   808G11  C09P55423   4.409   2.442  11.655
   808G11  H00P55424   4.476   2.366  11.617
   808G11  C09O55425   4.464   2.570  11.673
   808G11  C09D55426   4.445   2.634  11.800
   808G11  C09C55427   4.513   2.752  11.861
   808G11  C09N55428   4.602   2.852  11.802
   808G11  C09T55429   4.599   2.876  11.663
   808G11  C09S55430   4.571   2.773  11.565
   808G11  C0CP55431   4.575   2.847  11.445
   808G11  C0CN55432   4.614   2.981  11.455
   808G11  C0CO55433   4.612   3.066  11.343
   808G11  H01455434   4.631   3.172  11.352
   808G11  C0CZ55435   4.579   3.003  11.218
   808G11  H01555436   4.580   3.068  11.131
   808G11  C0D055437   4.542   2.867  11.198
   808G11  C0G555438   4.504   2.797  11.082
   808G11  H01F55439   4.493   2.847  10.987
   808G11  C0G455440   4.464   2.666  11.094
   808G11  H01G55441   4.424   2.624  11.003
   808G11  O00H55442   4.467   2.583  11.204
   808G11  C0D255443   4.508   2.651  11.309
   808G11  C09V55444   4.512   2.579  11.429
   808G11  H00Q55445   4.491   2.474  11.412
   808G11  C0D155446   4.544   2.787  11.317
   808G11  C09R55447   4.522   2.638  11.560
   808G11  C09H55448   4.017   2.517  11.942
   808G11  C09E55449   4.325   2.587  11.871
   808G11  C09B55450   4.491   2.797  11.989
   808G11  C08Z55451   4.187   2.787  12.149
   808G11  C08O55452   4.232   3.058  12.187
   808G11  C09A55453   4.561   2.918  12.025
   808G11  C08S55454   4.430   3.250  12.003
   808G11  C09955455   4.616   2.961  11.900
   808G11  C09U55456   4.650   2.998  11.600
   808G11  C0BO55457   4.911   3.392  11.513
   808G11  C0CL55458   4.680   3.330  11.803
   808G11  C0D355459   4.667   3.553  11.915
   808G11  C0D555460   4.735   3.825  11.948
   808G11  C0BR55461   4.906   3.591  11.643
   808G11  C0BQ55462   4.955   3.520  11.534
   808G11  C0BL55463   5.015   3.396  11.291
   808G11  C0AF55464   5.163   3.522  11.110
   808G11  C0BH55465   5.156   3.779  11.369
   808G11  C0BG55466   5.202   3.908  11.385
   808G11  C0BD55467   5.318   3.902  11.175
   808G11  C0AG55468   5.255   3.581  11.025
   808G11  C0AI55469   5.372   3.577  10.804
   808G11  C0AV55470   5.450   3.711  10.592
   808G11  C0BB55471   5.534   3.940  10.879
   808G11  O00C55472   5.529   3.930  10.522
   808G11  C0BC55473   5.548   4.069  10.862
   808G11  C0B955474   5.398   3.962  11.077
   808G11  O00E55475   5.389   4.305  11.186
   808G11  C0CA55476   5.356   4.385  11.297
   808G11  O00F55477   5.385   4.504  11.294
   808G11  C0BF55478   5.277   3.970  11.287
   808G11  C0C555479   5.291   4.316  11.405
   808G11  C0C455480   5.251   4.392  11.522
   808G11  H01155481   5.281   4.495  11.531
   808G11  C0C855482   5.150   3.984  11.488
   808G11  C0C255483   5.167   4.327  11.617
   808G11  C0C355484   5.095   4.396  11.717
   808G11  C0DY55485   5.116   4.533  11.751
   808G11  H01655486   5.190   4.599  11.708
   808G11  C0DX55487   5.031   4.552  11.869
   808G11  C0DW55488   5.067   4.646  11.969
   808G11  C0BY55489   5.014   4.003  11.690
   808G11  C0DB55490   5.004   4.337  11.802
   808G11  C0CC55491   4.856   4.020  11.876
   808G11  C0D755492   4.709   4.183  12.053
   808G11  C0DZ55493   4.958   4.430  11.900
   808G11  C0DM55494   4.600   4.394  12.172
   808G11  C0DQ55495   4.851   4.639  12.096
   808G11  C0DV55496   4.973   4.697  12.057
   808G11  C0E055497   5.178   4.738  11.974
   808G11  C0FO55498   5.111   5.084  12.001
   808G11  C0E355499   5.228   4.805  11.855
   808G11  H01755500   5.189   4.785  11.757
   808G11  C0GV55501   5.150   5.142  11.880
   808G11  C0ES55502   4.978   5.120  12.045
   808G11  C0GQ55503   4.974   5.451  11.878
   808G11  C0FJ55504   4.663   5.481  12.088
   808G11  C0ED55505   4.732   5.214  12.148
   808G11  C0ER55506   4.549   5.311  12.443
   808G11  C0EP55507   4.420   5.119  12.464
   808G11  C0E655508   4.693   4.964  12.225
   808G11  C0DE55509   4.543   4.702  12.286
   808G11  C0EA55510   4.279   4.903  12.497
   808G11  C0DF55511   4.471   4.614  12.367
   808G11  C08055512   4.177   4.583  12.557
   808G11  C0DO55513   4.432   4.476  12.348
   808G11  C0DJ55514   4.351   4.214  12.365
   808G11  C07K55515   4.074   4.331  12.603
   808G11  C07W55516   4.221   4.034  12.444
   808G11  C08355517   4.006   3.917  12.576
   808G11  C07J55518   3.958   4.274  12.660
   808G11  C06O55519   3.729   4.160  12.783
   808G11  C06M55520   3.795   3.943  12.706
   818G11  C07155521   9.151   5.521   5.688
   818G11  C07L55522   9.120   5.652   5.656
   818G11  C07M55523   9.216   5.745   5.612
   818G11  C07Y55524   9.183   5.879   5.581
   818G11  C08155525   9.044   5.922   5.579
   818G11  C08255526   9.017   6.054   5.525
   818G11  C0DI55527   8.888   6.112   5.478
   818G11  C0DH55528   8.753   6.068   5.487
   818G11  C0DG55529   8.673   6.167   5.420
   818G11  C0E955530   8.540   6.216   5.459
   818G11  C0E855531   8.546   6.364   5.433
   818G11  C0E755532   8.435   6.470   5.448
   818G11  C0EB55533   8.297   6.431   5.479
   818G11  C0EF55534   8.185   6.520   5.498
   818G11  C0EE55535   8.173   6.643   5.562
   818G11  C0FD55536   8.068   6.660   5.659
   818G11  C0FE55537   8.005   6.559   5.736
   818G11  H01B55538   8.032   6.456   5.722
   818G11  C0FF55539   7.911   6.581   5.833
   818G11  H01A55540   7.852   6.505   5.882
   818G11  C0FG55541   7.872   6.715   5.854
   818G11  H01855542   7.800   6.730   5.934
   818G11  C0FH55543   7.941   6.823   5.788
   818G11  C0FI55544   7.910   6.962   5.811
   818G11  H01955545   7.826   6.988   5.874
   818G11  O00K55546   7.974   7.065   5.749
   818G11  C0FL55547   8.071   7.028   5.664
   818G11  C0FK55548   8.106   6.896   5.626
   818G11  C0FM55549   8.200   6.873   5.520
   818G11  C0FN55550   8.250   6.984   5.449
   818G11  C0FP55551   8.227   7.111   5.497
   818G11  C0GO55552   8.296   7.225   5.462
   818G11  C0GN55553   8.308   7.348   5.535
   818G11  C0GR55554   8.212   7.365   5.639
   818G11  C0GS55555   8.207   7.487   5.709
   818G11  H01Q55556   8.128   7.499   5.782
   818G11  C0GT55557   8.311   7.575   5.692
   818G11  H01O55558   8.296   7.662   5.754
   818G11  C0GU55559   8.408   7.552   5.593
   818G11  H01P55560   8.484   7.627   5.578
   818G11  O00L55561   8.129   7.261   5.678
   818G11  C0GM55562   8.410   7.438   5.505
   818G11  C0GL55563   8.500   7.410   5.402
   818G11  H01R55564   8.587   7.473   5.393
   818G11  C0GK55565   8.482   7.299   5.322
   818G11  C0GP55566   8.558   7.230   5.219
   818G11  C0E255567   8.492   7.107   5.180
   818G11  C0E155568   8.595   7.007   5.155
   818G11  C0DU55569   8.614   6.883   5.224
   818G11  C0DT55570   8.523   6.802   5.292
   818G11  C0E455571   8.402   6.835   5.344
   818G11  C0E555572   8.359   6.727   5.416
   818G11  C0DS55573   8.562   6.678   5.344
   818G11  C0DR55574   8.700   6.640   5.328
   818G11  C0DD55575   8.757   6.521   5.361
   818G11  C0DC55576   8.902   6.548   5.354
   818G11  C0DP55577   8.935   6.678   5.297
   818G11  C0DA55578   9.063   6.740   5.268
   818G11  C0D955579   9.206   6.684   5.262
   818G11  C0CR55580   9.311   6.765   5.209
   818G11  C0C055581   9.298   6.900   5.178
   818G11  C0BZ55582   9.395   6.982   5.127
   818G11  C0C155583   9.369   7.118   5.102
   818G11  C0C755584   9.463   7.191   5.028
   818G11  C0C655585   9.435   7.324   4.989
   818G11  C0C955586   9.513   7.385   4.896
   818G11  C0B855587   9.481   7.516   4.852
   818G11  C0B755588   9.530   7.566   4.730
   818G11  C0B655589   9.516   7.694   4.658
   818G11  C0B555590   9.571   7.804   4.730
   818G11  H00Z55591   9.596   7.797   4.835
   818G11  C0B455592   9.624   7.894   4.629
   818G11  H01055593   9.692   7.977   4.640
   818G11  C0B355594   9.597   7.851   4.495
   818G11  C0AP55595   9.712   7.832   4.396
   818G11  C0AQ55596   9.722   7.697   4.387
   818G11  C0AR55597   9.841   7.635   4.343
   818G11  C0AS55598   9.860   7.506   4.383
   818G11  C0AT55599   9.784   7.446   4.479
   818G11  C0BA55600   9.672   7.507   4.532
   818G11  C0AU55601   9.841   7.338   4.547
   818G11  C0BE55602   9.779   7.295   4.663
   818G11  C0BI55603   9.830   7.180   4.723
   818G11  C0BJ55604   9.950   7.128   4.684
   818G11  C0BK55605   9.998   7.009   4.739
   818G11  C0BW55606   9.927   6.950   4.844
   818G11  C0BV55607   9.809   7.007   4.885
   818G11  C0BU55608   9.733   6.941   4.984
   818G11  C0BX55609   9.609   7.000   5.020
   818G11  C0BT55610   9.767   6.814   5.027
   818G11  C0CD55611   9.677   6.740   5.102
   818G11  C0CB55612   9.550   6.800   5.138
   818G11  C0CE55613   9.704   6.614   5.138
   818G11  C0CK55614   9.829   6.558   5.103
   818G11  C0BS55615   9.918   6.627   5.019
   818G11  C0CJ55616  10.036   6.570   4.972
   818G11  C0BP55617  10.117   6.637   4.877
   818G11  C0CI55618  10.228   6.574   4.817
   818G11  C0CH55619  10.307   6.651   4.733
   818G11  H01255620  10.406   6.612   4.714
   818G11  C0BN55621  10.264   6.769   4.678
   818G11  C0CG55622  10.335   6.832   4.573
   818G11  C0CF55623  10.450   6.768   4.502
   818G11  H01355624  10.469   6.665   4.529
   818G11  O00G55625  10.521   6.836   4.403
   818G11  C0AA55626  10.490   6.966   4.382
   818G11  C0A955627  10.578   7.038   4.305
   818G11  H00U55628  10.666   6.988   4.268
   818G11  C0A855629  10.556   7.172   4.281
   818G11  H00V55630  10.641   7.217   4.231
   818G11  C0A755631  10.441   7.248   4.317
   818G11  C0A655632  10.348   7.168   4.394
   818G11  C0A555633  10.220   7.208   4.430
   818G11  C0A455634  10.151   7.316   4.363
   818G11  C0A355635  10.195   7.428   4.281
   818G11  C0A255636  10.330   7.473   4.272
   818G11  C0A155637  10.363   7.585   4.188
   818G11  C0A055638  10.291   7.704   4.136
   818G11  C09Z55639  10.361   7.784   4.042
   818G11  C09Y55640  10.305   7.902   3.991
   818G11  H00Y55641  10.359   7.963   3.920
   818G11  C09X55642  10.187   7.954   4.051
   818G11  C09W55643  10.144   8.089   4.022
   818G11  H00R55644  10.201   8.156   3.959
   818G11  C0AX55645  10.036   8.147   4.084
   818G11  H00S55646  10.009   8.252   4.077
   818G11  C0AW55647   9.955   8.061   4.157
   818G11  H00T55648   9.859   8.096   4.192
   818G11  C0AN55649   9.996   7.934   4.187
   818G11  C0AO55650   9.911   7.848   4.262
   818G11  C0AM55651  10.114   7.874   4.138
   818G11  C0B255652  10.500   7.761   4.006
   818G11  O00D55653  10.566   7.827   3.926
   818G11  C0B155654  10.565   7.645   4.056
   818G11  H00W55655  10.668   7.621   4.037
   818G11  C0AL55656  10.157   7.738   4.170
   818G11  C0AK55657  10.060   7.655   4.237
   818G11  C0B055658  10.495   7.566   4.145
   818G11  C0AZ55659  10.542   7.445   4.200
   818G11  H00X55660  10.644   7.419   4.176
   818G11  C0AJ55661  10.081   7.519   4.275
   818G11  C0AH55662  10.021   7.331   4.394
   818G11  C0AE55663  10.144   7.138   4.526
   818G11  C0AD55664  10.189   7.016   4.585
   818G11  C0AY55665  10.438   7.381   4.270
   818G11  C0AB55666  10.379   7.033   4.439
   818G11  C0AC55667  10.301   6.959   4.532
   818G11  C0BM55668  10.151   6.826   4.735
   818G11  C0CM55669  10.246   6.435   4.839
   818G11  C09M55670  10.194   6.373   4.956
   818G11  C09855671  10.271   6.262   5.000
   818G11  C08R55672  10.244   6.155   5.096
   818G11  C08Q55673  10.336   6.052   5.112
   818G11  C08P55674  10.337   5.908   5.138
   818G11  C08Y55675  10.444   5.841   5.074
   818G11  C09755676  10.518   5.897   4.968
   818G11  C09655677  10.540   5.806   4.866
   818G11  C09055678  10.536   5.681   4.933
   818G11  C09555679  10.555   5.545   4.875
   818G11  C09455680  10.542   5.419   4.949
   818G11  C08J55681  10.479   5.397   5.075
   818G11  C08I55682  10.419   5.267   5.060
   818G11  C08H55683  10.313   5.248   5.161
   818G11  C08G55684  10.276   5.387   5.197
   818G11  C08F55685  10.177   5.455   5.280
   818G11  C08E55686  10.098   5.374   5.361
   818G11  C05955687  10.122   5.243   5.412
   818G11  C05855688  10.029   5.177   5.503
   818G11  C05755689  10.033   5.035   5.548
   818G11  C05655690  10.143   4.960   5.491
   818G11  C05555691  10.240   5.022   5.423
   818G11  C05455692  10.298   4.920   5.339
   818G11  C05355693  10.230   4.794   5.359
   818G11  C05255694  10.235   4.672   5.283
   818G11  C05155695  10.320   4.666   5.164
   818G11  C05U55696  10.384   4.777   5.089
   818G11  C05T55697  10.394   4.916   5.108
   818G11  C06K55698  10.508   4.958   5.031
   818G11  H00J55699  10.548   5.056   5.055
   818G11  C06L55700  10.550   4.856   4.936
   818G11  H00I55701  10.632   4.863   4.867
   818G11  C05V55702  10.470   4.747   4.980
   818G11  C06J55703  10.477   4.623   4.926
   818G11  H00K55704  10.547   4.618   4.843
   818G11  C05X55705  10.394   4.518   4.972
   818G11  C06I55706  10.391   4.387   4.914
   818G11  H00L55707  10.441   4.370   4.820
   818G11  C04Z55708  10.309   4.284   4.950
   818G11  C06H55709  10.310   4.154   4.893
   818G11  H00H55710  10.377   4.123   4.814
   818G11  C04Y55711  10.208   4.063   4.929
   818G11  C06G55712  10.197   3.941   4.848
   818G11  O00955713  10.271   3.924   4.753
   818G11  O00855714  10.097   3.859   4.881
   818G11  C04P55715  10.015   3.875   4.986
   818G11  C04J55716   9.912   3.778   5.029
   818G11  C04Q55717   9.878   3.655   4.969
   818G11  H00E55718   9.936   3.627   4.882
   818G11  C04M55719   9.787   3.559   5.025
   818G11  C04R55720   9.738   3.437   4.965
   818G11  H00F55721   9.768   3.411   4.865
   818G11  C04S55722   9.671   3.352   5.044
   818G11  H00G55723   9.641   3.255   5.007
   818G11  O00755724   9.624   3.379   5.167
   818G11  C03V55725   9.642   3.504   5.213
   818G11  C03U55726   9.569   3.545   5.325
   818G11  O00655727   9.475   3.457   5.370
   818G11  C03F55728   9.380   3.505   5.456
   818G11  C03E55729   9.376   3.640   5.502
   818G11  C03D55730   9.481   3.723   5.467
   818G11  C03C55731   9.491   3.858   5.515
   818G11  C03B55732   9.390   3.895   5.599
   818G11  C03A55733   9.387   4.028   5.644
   818G11  C03955734   9.499   4.112   5.625
   818G11  C03855735   9.452   4.233   5.699
   818G11  C03755736   9.327   4.198   5.758
   818G11  C03655737   9.263   4.280   5.841
   818G11  C02R55738   9.139   4.270   5.894
   818G11  C03555739   9.112   4.403   5.934
   818G11  C03R55740   9.214   4.488   5.908
   818G11  C03S55741   9.193   4.624   5.873
   818G11  C04955742   9.293   4.690   5.808
   818G11  C04855743   9.401   4.608   5.768
   818G11  C03P55744   9.414   4.463   5.777
   818G11  C04755745   9.510   4.689   5.728
   818G11  C04655746   9.637   4.645   5.697
   818G11  C04555747   9.691   4.521   5.667
   818G11  C03T55748   9.631   4.394   5.670
   818G11  C04455749   9.720   4.302   5.609
   818G11  C04355750   9.848   4.362   5.597
   818G11  C04255751   9.911   4.315   5.483
   818G11  C04155752   9.834   4.193   5.456
   818G11  C04055753   9.869   4.100   5.363
   818G11  C03Z55754   9.793   3.981   5.324
   818G11  C04H55755   9.851   3.931   5.204
   818G11  C04G55756   9.952   4.018   5.167
   818G11  C03N55757   9.682   3.900   5.374
   818G11  C03Y55758   9.664   3.771   5.313
   818G11  C03X55759   9.740   3.730   5.199
   818G11  C04F55760   9.963   4.123   5.255
   818G11  C04E55761  10.051   4.232   5.221
   818G11  C04O55762  10.137   4.211   5.107
   818G11  C04D55763  10.085   4.343   5.302
   818G11  C04V55764  10.172   4.440   5.251
   818G11  C04W55765  10.237   4.432   5.126
   818G11  C04C55766  10.031   4.382   5.425
   818G11  C04L55767  10.087   4.517   5.447
   818G11  C04U55768  10.018   4.614   5.527
   818G11  C05Q55769  10.048   4.750   5.531
   818G11  C05P55770   9.947   4.823   5.601
   818G11  C04T55771   9.851   4.730   5.635
   818G11  C04B55772   9.900   4.602   5.603
   818G11  C03M55773   9.716   4.174   5.541
   818G11  C04A55774   9.814   4.499   5.620
   818G11  C05H55775   9.721   4.754   5.684
   818G11  C05G55776   9.643   4.873   5.711
   818G11  C05F55777   9.688   5.003   5.686
   818G11  C05E55778   9.605   5.117   5.680
   818G11  C05L55779   9.467   5.152   5.694
   818G11  C05K55780   9.367   5.059   5.736
   818G11  C05J55781   9.383   4.916   5.751
   818G11  C06655782   9.238   5.112   5.755
   818G11  C06555783   9.210   5.247   5.736
   818G11  C06455784   9.310   5.338   5.689
   818G11  C06N55785   9.083   5.295   5.757
   818G11  C06955786   8.976   5.210   5.796
   818G11  C06P55787   8.841   5.255   5.803
   818G11  C06R55788   8.735   5.171   5.837
   818G11  C06B55789   8.763   5.041   5.861
   818G11  C06S55790   8.658   4.954   5.885
   818G11  C02G55791   8.682   4.820   5.912
   818G11  C02F55792   8.577   4.732   5.938
   818G11  C02755793   8.446   4.780   5.935
   818G11  C02655794   8.343   4.689   5.957
   818G11  C00E55795   8.213   4.725   5.936
   818G11  C00D55796   8.111   4.635   5.940
   818G11  C00C55797   7.986   4.683   5.894
   818G11  C00B55798   7.957   4.795   5.835
   818G11  C01555799   8.062   4.883   5.828
   818G11  C07F55800   8.037   5.008   5.772
   818G11  C07E55801   8.135   5.107   5.777
   818G11  C06W55802   8.265   5.070   5.820
   818G11  C06V55803   8.290   4.946   5.871
   818G11  C06X55804   8.369   5.162   5.806
   818G11  C07B55805   8.346   5.286   5.754
   818G11  C07C55806   8.216   5.323   5.723
   818G11  C0FU55807   8.187   5.453   5.676
   818G11  C0F755808   8.070   5.475   5.617
   818G11  C0F655809   8.051   5.601   5.556
   818G11  C0F855810   7.929   5.633   5.494
   818G11  C0F955811   7.902   5.761   5.440
   818G11  C0FA55812   7.777   5.788   5.382
   818G11  C0FZ55813   7.683   5.686   5.363
   818G11  C0G055814   7.561   5.715   5.303
   818G11  C0GD55815   7.530   5.845   5.266
   818G11  C0FC55816   7.620   5.951   5.293
   818G11  C0GH55817   7.590   6.087   5.262
   818G11  C0EY55818   7.672   6.191   5.303
   818G11  C0EX55819   7.634   6.323   5.286
   818G11  C0EW55820   7.717   6.424   5.327
   818G11  C0FR55821   7.675   6.561   5.319
   818G11  H01D55822   7.724   6.646   5.364
   818G11  C0FS55823   7.553   6.593   5.261
   818G11  H01C55824   7.527   6.698   5.262
   818G11  C0GJ55825   7.483   6.491   5.197
   818G11  H01N55826   7.394   6.513   5.139
   818G11  C0EV55827   7.842   6.391   5.387
   818G11  C0FT55828   7.937   6.490   5.427
   818G11  H01E55829   7.917   6.596   5.423
   818G11  C0EU55830   7.882   6.260   5.394
   818G11  C0ET55831   8.012   6.217   5.430
   818G11  C0EI55832   8.054   6.092   5.450
   818G11  C0F155833   7.959   5.993   5.434
   818G11  C0F055834   7.831   6.025   5.383
   818G11  C0EH55835   8.193   6.068   5.484
   818G11  C0EG55836   8.295   6.167   5.486
   818G11  C0EJ55837   8.220   5.934   5.516
   818G11  C0F355838   8.119   5.834   5.514
   818G11  C0EK55839   8.348   5.901   5.567
   818G11  C0EL55840   8.454   5.991   5.554
   818G11  C0EM55841   8.584   5.938   5.595
   818G11  C0EN55842   8.589   5.815   5.659
   818G11  C07I55843   8.723   5.777   5.691
   818G11  C07455844   8.761   5.646   5.716
   818G11  C07355845   8.894   5.607   5.714
   818G11  C07255846   8.923   5.480   5.752
   818G11  C07555847   8.654   5.557   5.735
   818G11  C07655848   8.521   5.599   5.705
   818G11  C07855849   8.421   5.510   5.707
   818G11  C07G55850   8.683   5.428   5.768
   818G11  C07055851   8.573   5.343   5.779
   818G11  C07Z55852   8.811   5.872   5.637
   818G11  C07755853   8.490   5.723   5.657
   818G11  C0EO55854   8.365   5.771   5.614
   818G11  C0F455855   8.268   5.673   5.611
   818G11  C0EQ55856   8.102   6.317   5.468
   818G11  C0FQ55857   7.518   6.355   5.215
   818G11  C0GI55858   7.439   6.253   5.176
   818G11  H01L55859   7.349   6.264   5.118
   818G11  C0EZ55860   7.795   6.160   5.363
   818G11  C0GG55861   7.464   6.116   5.203
   818G11  C0GF55862   7.375   6.009   5.181
   818G11  H01M55863   7.279   6.028   5.136
   818G11  C0GE55864   7.406   5.882   5.214
   818G11  H01K55865   7.323   5.813   5.211
   818G11  O00J55866   7.467   5.618   5.284
   818G11  C0GA55867   7.490   5.497   5.345
   818G11  C0G955868   7.384   5.403   5.341
   818G11  H01H55869   7.290   5.441   5.303
   818G11  C0G855870   7.398   5.278   5.400
   818G11  C0G755871   7.294   5.183   5.416
   818G11  H01I55872   7.203   5.206   5.362
   818G11  O00I55873   7.306   5.062   5.481
   818G11  C0G655874   7.426   5.034   5.543
   818G11  H01J55875   7.422   4.937   5.592
   818G11  C02D55876   7.538   5.121   5.536
   818G11  C02C55877   7.662   5.090   5.591
   818G11  C01755878   7.694   4.960   5.644
   818G11  C01655879   7.812   4.935   5.716
   818G11  O00155880   7.624   4.856   5.608
   818G11  C01855881   7.637   4.732   5.662
   818G11  C00955882   7.736   4.710   5.761
   818G11  C00855883   7.769   4.594   5.828
   818G11  C00755884   7.711   4.456   5.833
   818G11  C00655885   7.609   4.423   5.733
   818G11  C00555886   7.563   4.288   5.719
   818G11  C00455887   7.605   4.171   5.790
   818G11  C00355888   7.732   4.131   5.859
   818G11  C00255889   7.754   3.994   5.881
   818G11  C00P55890   7.887   3.951   5.911
   818G11  C00O55891   7.924   3.820   5.906
   818G11  C00N55892   8.054   3.775   5.906
   818G11  C01055893   8.088   3.643   5.899
   818G11  C01155894   8.221   3.602   5.907
   818G11  C01Q55895   8.253   3.463   5.903
   818G11  C01U55896   8.148   3.367   5.905
   818G11  C01255897   8.014   3.414   5.891
   818G11  H00055898   7.940   3.338   5.869
   818G11  C01V55899   8.186   3.230   5.935
   818G11  H00755900   8.104   3.159   5.938
   818G11  O00555901   8.318   3.191   5.952
   818G11  C01W55902   8.413   3.284   5.927
   818G11  C03155903   8.543   3.241   5.948
   818G11  C03255904   8.651   3.332   5.958
   818G11  H00A55905   8.752   3.305   5.986
   818G11  C03355906   8.620   3.469   5.949
   818G11  H00B55907   8.703   3.535   5.971
   818G11  C01O55908   8.491   3.514   5.913
   818G11  C01N55909   8.459   3.651   5.910
   818G11  C01M55910   8.565   3.758   5.916
   818G11  C01L55911   8.711   3.792   5.899
   818G11  C01K55912   8.722   3.930   5.926
   818G11  C01Y55913   8.830   4.012   5.902
   818G11  C02I55914   8.945   3.955   5.848
   818G11  C02N55915   9.057   4.040   5.839
   818G11  C02M55916   9.170   3.990   5.760
   818G11  C02L55917   9.167   3.859   5.706
   818G11  C02K55918   9.051   3.778   5.725
   818G11  C02U55919   9.043   3.653   5.657
   818G11  C02V55920   9.162   3.606   5.596
   818G11  C03H55921   9.168   3.471   5.552
   818G11  H00C55922   9.089   3.403   5.581
   818G11  C02W55923   8.924   3.584   5.646
   818G11  C02X55924   8.825   3.633   5.727
   818G11  C02Y55925   8.711   3.569   5.669
   818G11  H00855926   8.606   3.595   5.672
   818G11  C02Z55927   8.756   3.462   5.580
   818G11  O00455928   8.692   3.374   5.521
   818G11  O00355929   8.890   3.476   5.575
   818G11  C02J55930   8.943   3.821   5.805
   818G11  C01Z55931   8.810   4.143   5.936
   818G11  C02055932   8.682   4.193   5.964
   818G11  C01I55933   8.575   4.111   5.979
   818G11  C01H55934   8.447   4.148   5.991
   818G11  C00K55935   8.350   4.053   5.978
   818G11  C01S55936   8.373   3.919   5.964
   818G11  C01455937   8.284   3.824   5.932
   818G11  C00J55938   8.220   4.088   5.976
   818G11  C00I55939   8.192   4.225   5.979
   818G11  C00H55940   8.292   4.320   5.999
   818G11  C00G55941   8.264   4.460   5.985
   818G11  C00S55942   8.062   4.273   5.961
   818G11  C00T55943   8.037   4.404   5.964
   818G11  C00U55944   7.908   4.451   5.945
   818G11  C00R55945   7.963   4.179   5.935
   818G11  C00L55946   8.120   3.998   5.955
   818G11  C02855947   8.422   4.280   6.005
   818G11  C02355948   8.527   4.374   5.991
   818G11  C02455949   8.499   4.508   5.983
   818G11  C02155950   8.660   4.327   5.977
   818G11  C02255951   8.760   4.419   5.962
   818G11  C02H55952   8.734   4.553   5.953
   818G11  C03055953   8.837   4.642   5.933
   818G11  C03455954   8.965   4.594   5.928
   818G11  C02P55955   8.886   4.368   5.939
   818G11  C02B55956   8.917   4.226   5.936
   818G11  C01J55957   8.600   3.977   5.963
   818G11  C01X55958   8.821   3.743   5.817
   818G11  C01T55959   8.510   3.875   5.958
   818G11  H00955960   8.558   3.135   5.961
   818G11  C01P55961   8.385   3.425   5.908
   818G11  C01R55962   8.322   3.694   5.918
   818G11  C00Z55963   7.986   3.550   5.902
   818G11  O00055964   7.862   3.593   5.881
   818G11  C00M55965   8.154   3.864   5.929
   818G11  C00Y55966   7.826   3.721   5.895
   818G11  C01355967   7.689   3.760   5.893
   818G11  H00155968   7.606   3.693   5.879
   818G11  C00Q55969   7.989   4.043   5.932
   818G11  C00155970   7.653   3.899   5.868
   818G11  C00055971   7.530   3.947   5.830
   818G11  H00655972   7.456   3.869   5.835
   818G11  C00W55973   7.834   4.221   5.890
   818G11  C01G55974   7.506   4.073   5.794
   818G11  H00555975   7.406   4.099   5.762
   818G11  C01C55976   7.463   4.286   5.616
   818G11  H00255977   7.410   4.199   5.578
   818G11  C01B55978   7.447   4.425   5.571
   818G11  C01D55979   7.363   4.479   5.466
   818G11  H00355980   7.290   4.418   5.414
   818G11  C01E55981   7.393   4.608   5.431
   818G11  H00455982   7.340   4.649   5.346
   818G11  O00255983   7.482   4.687   5.497
   818G11  C01A55984   7.535   4.504   5.638
   818G11  C00V55985   7.813   4.366   5.880
   818G11  C01955986   7.548   4.637   5.608
   818G11  C02E55987   7.764   5.183   5.591
   818G11  C0FX55988   7.749   5.309   5.535
   818G11  C0FW55989   7.848   5.406   5.540
   818G11  C0GB55990   7.629   5.339   5.463
   818G11  C0G355991   7.885   5.156   5.653
   818G11  C07H55992   7.989   5.252   5.660
   818G11  C0GC55993   7.522   5.245   5.461
   818G11  C0G255994   7.613   5.460   5.400
   818G11  C0G155995   7.709   5.562   5.413
   818G11  C0FB55996   7.744   5.922   5.352
   818G11  C0F255997   7.994   5.861   5.463
   818G11  C0FY55998   7.834   5.533   5.482
   818G11  C0F555999   8.142   5.704   5.558
   818G11  C0FV56000   7.971   5.381   5.604
   818G11  C07956001   8.289   5.547   5.673
   818G11  C07A56002   8.446   5.379   5.744
   818G11  C06Y56003   8.497   5.128   5.845
   818G11  C07D56004   8.111   5.229   5.723
   818G11  C01F56005   7.909   5.034   5.717
   818G11  C00A56006   7.834   4.813   5.771
   818G11  C00X56007   7.889   4.582   5.898
   818G11  C00F56008   8.136   4.503   5.966
   818G11  C02956009   8.191   4.855   5.882
   818G11  C02556010   8.367   4.554   5.983
   818G11  C06U56011   8.420   4.907   5.898
   818G11  C02A56012   8.603   4.599   5.958
   818G11  C05Y56013   8.814   4.773   5.906
   818G11  C05Z56014   8.920   4.857   5.872
   818G11  C06056015   9.050   4.809   5.864
   818G11  C06256016   9.157   4.888   5.819
   818G11  C06T56017   8.527   4.998   5.876
   818G11  C06A56018   8.891   4.991   5.851
   818G11  C06Z56019   8.600   5.218   5.831
   818G11  C06Q56020   8.817   5.387   5.774
   818G11  C06856021   9.002   5.071   5.817
   818G11  C06756022   9.137   5.025   5.799
   818G11  C06356023   9.436   5.292   5.665
   818G11  C06C56024   9.529   5.386   5.616
   818G11  C06D56025   9.659   5.350   5.590
   818G11  C06E56026   9.760   5.422   5.531
   818G11  C07Q56027   9.727   5.549   5.496
   818G11  C07P56028   9.604   5.602   5.538
   818G11  C07T56029   9.577   5.738   5.524
   818G11  C07U56030   9.450   5.786   5.553
   818G11  C07V56031   9.418   5.915   5.519
   818G11  C08456032   9.518   5.997   5.467
   818G11  C08C56033   9.646   5.948   5.447
   818G11  C08B56034   9.742   6.027   5.389
   818G11  C08A56035   9.868   5.976   5.363
   818G11  C08956036   9.897   5.846   5.369
   818G11  C08856037  10.021   5.792   5.313
   818G11  C08756038  10.044   5.658   5.324
   818G11  C08656039   9.949   5.574   5.392
   818G11  C08X56040  10.117   5.879   5.247
   818G11  C08T56041  10.082   6.018   5.236
   818G11  C08D56042   9.803   5.763   5.430
   818G11  C08U56043   9.958   6.059   5.289
   818G11  C08V56044   9.926   6.186   5.250
   818G11  C0CY56045   9.798   6.239   5.280
   818G11  C0CX56046   9.768   6.362   5.233
   818G11  C0CW56047   9.642   6.412   5.247
   818G11  C0CV56048   9.555   6.339   5.327
   818G11  C0D456049   9.587   6.207   5.371
   818G11  C0CU56050   9.423   6.387   5.348
   818G11  C0CT56051   9.383   6.509   5.291
   818G11  C0CS56052   9.480   6.589   5.232
   818G11  C0D656053   9.333   6.305   5.413
   818G11  C0EC56054   9.362   6.178   5.457
   818G11  C07X56055   9.261   6.095   5.501
   818G11  C0DL56056   9.205   6.353   5.413
   818G11  C0DK56057   9.104   6.265   5.462
   818G11  C0DN56058   8.989   6.329   5.439
   818G11  C0D856059   9.152   6.469   5.366
   818G11  C08W56060  10.021   6.245   5.168
   818G11  C0CQ56061   9.990   6.377   5.111
   818G11  C09356062   9.712   6.155   5.351
   818G11  C09256063   9.489   6.130   5.436
   818G11  C08556064   9.677   5.817   5.471
   818G11  C07S56065   9.827   5.627   5.437
   818G11  C06F56066   9.885   5.371   5.497
   818G11  C07O56067   9.503   5.522   5.591
   818G11  C07N56068   9.377   5.568   5.616
   818G11  C05D56069   9.692   5.219   5.633
   818G11  C05C56070   9.822   5.179   5.613
   818G11  C05N56071   9.815   5.045   5.640
   818G11  C05M56072   9.509   4.835   5.733
   818G11  C05I56073   9.281   4.831   5.791
   818G11  C06156074   9.068   4.674   5.891
   818G11  C02Q56075   8.986   4.457   5.941
   818G11  C02O56076   9.037   4.170   5.894
   818G11  C03Q56077   9.308   4.412   5.843
   818G11  C03O56078   9.500   4.370   5.709
   818G11  C03L56079   9.610   4.079   5.542
   818G11  C02S56080   9.280   4.074   5.724
   818G11  C02T56081   9.272   3.815   5.621
   818G11  C03K56082   9.601   3.941   5.481
   818G11  C03I56083   9.270   3.689   5.573
   818G11  C03G56084   9.274   3.421   5.478
   818G11  H00D56085   9.284   3.318   5.445
   818G11  C03J56086   9.578   3.675   5.375
   818G11  C03W56087   9.724   3.600   5.143
   818G11  C04I56088   9.831   3.810   5.138
   818G11  C04K56089  10.030   3.989   5.062
   818G11  C04N56090  10.123   4.090   5.034
   818G11  C04X56091  10.227   4.311   5.058
   818G11  C05056092  10.321   4.540   5.091
   818G11  C05W56093  10.171   4.555   5.329
   818G11  C05S56094  10.334   4.989   5.216
   818G11  C05R56095  10.147   4.820   5.472
   818G11  C05O56096   9.928   4.964   5.608
   818G11  C05B56097   9.918   5.248   5.537
   818G11  C05A56098  10.219   5.147   5.359
   818G11  C07R56099   9.980   5.441   5.415
   818G11  C08N56100  10.158   5.599   5.266
   818G11  C08M56101  10.249   5.678   5.194
   818G11  C08L56102  10.361   5.616   5.124
   818G11  C09156103  10.293   5.134   5.239
   818G11  C09K56104  10.424   5.225   4.918
   818G11  H00M56105  10.353   5.153   4.880
   818G11  C08K56106  10.374   5.474   5.134
   818G11  C09J56107  10.517   5.315   4.853
   818G11  C09I56108  10.528   5.378   4.721
   818G11  C09L56109  10.523   5.322   4.585
   818G11  H00N56110  10.503   5.219   4.560
   818G11  C09Q56111  10.556   5.410   4.483
   818G11  H00O56112  10.558   5.377   4.380
   818G11  O00B56113  10.588   5.543   4.501
   818G11  C09G56114  10.572   5.608   4.628
   818G11  C09F56115  10.576   5.749   4.622
   818G11  O00A56116  10.605   5.794   4.496
   818G11  C09P56117  10.634   5.930   4.487
   818G11  H00P56118  10.734   5.959   4.459
   818G11  C09O56119  10.546   6.020   4.555
   818G11  C09D56120  10.529   5.984   4.696
   818G11  C09C56121  10.487   6.063   4.810
   818G11  C09N56122  10.425   6.193   4.818
   818G11  C09T56123  10.377   6.260   4.710
   818G11  C09S56124  10.402   6.224   4.572
   818G11  C0CP56125  10.325   6.319   4.499
   818G11  C0CN56126  10.254   6.405   4.582
   818G11  C0CO56127  10.169   6.501   4.524
   818G11  H01456128  10.104   6.570   4.577
   818G11  C0CZ56129  10.168   6.504   4.379
   818G11  H01556130  10.110   6.574   4.320
   818G11  C0D056131  10.242   6.419   4.299
   818G11  C0G556132  10.236   6.420   4.157
   818G11  H01F56133  10.168   6.491   4.111
   818G11  C0G456134  10.305   6.328   4.086
   818G11  H01G56135  10.284   6.328   3.979
   818G11  O00H56136  10.392   6.235   4.142
   818G11  C0D256137  10.399   6.231   4.280
   818G11  C09V56138  10.476   6.131   4.348
   818G11  H00Q56139  10.527   6.054   4.292
   818G11  C0D156140  10.327   6.317   4.360
   818G11  C09R56141  10.479   6.125   4.496
   818G11  C09H56142  10.555   5.518   4.738
   818G11  C09E56143  10.553   5.843   4.727
   818G11  C09B56144  10.499   6.026   4.939
   818G11  C08Z56145  10.444   5.703   5.046
   818G11  C08O56146  10.237   5.826   5.195
   818G11  C09A56147  10.441   6.113   5.032
   818G11  C08S56148  10.120   6.136   5.161
   818G11  C09956149  10.397   6.218   4.957
   818G11  C09U56150  10.290   6.371   4.717
   818G11  C0BO56151  10.080   6.762   4.839
   818G11  C0CL56152  10.077   6.439   5.016
   818G11  C0D356153   9.865   6.431   5.153
   818G11  C0D556154   9.610   6.538   5.208
   818G11  C0BR56155   9.886   6.762   4.979
   818G11  C0BQ56156   9.968   6.824   4.890
   818G11  C0BL56157  10.116   6.953   4.690
   818G11  C0AF56158  10.018   7.181   4.574
   818G11  C0BH56159   9.765   7.132   4.830
   818G11  C0BG56160   9.653   7.198   4.884
   818G11  C0BD56161   9.669   7.363   4.720
   818G11  C0AG56162   9.957   7.279   4.509
   818G11  C0AI56163   9.979   7.452   4.345
   818G11  C0AV56164   9.935   7.708   4.276
   818G11  C0BB56165   9.628   7.629   4.468
   818G11  O00C56166   9.806   7.911   4.339
   818G11  C0BC56167   9.537   7.722   4.518
   818G11  C0B956168   9.622   7.480   4.657
   818G11  O00E56169   9.390   7.587   4.923
   818G11  C0CA56170   9.300   7.527   5.012
   818G11  O00F56171   9.212   7.598   5.055
   818G11  C0BF56172   9.612   7.314   4.833
   818G11  C0C556173   9.321   7.390   5.036
   818G11  C0C456174   9.224   7.320   5.109
   818G11  H01156175   9.134   7.369   5.142
   818G11  C0C856176   9.581   7.129   4.980
   818G11  C0C256177   9.249   7.180   5.137
   818G11  C0C356178   9.150   7.088   5.189
   818G11  C0DY56179   9.019   7.118   5.214
   818G11  H01656180   8.967   7.210   5.194
   818G11  C0DX56181   8.961   6.986   5.244
   818G11  C0DW56182   8.823   6.972   5.201
   818G11  C0BY56183   9.518   6.930   5.099
   818G11  C0DB56184   9.174   6.953   5.210
   818G11  C0CC56185   9.445   6.717   5.187
   818G11  C0D756186   9.250   6.557   5.302
   818G11  C0DZ56187   9.063   6.883   5.247
   818G11  C0DM56188   9.009   6.462   5.395
   818G11  C0DQ56189   8.800   6.739   5.287
   818G11  C0DV56190   8.752   6.857   5.227
   818G11  C0E056191   8.724   7.070   5.162
   818G11  C0FO56192   8.389   7.086   5.283
   818G11  C0E356193   8.703   7.210   5.221
   818G11  H01756194   8.780   7.263   5.276
   818G11  C0GV56195   8.369   7.214   5.349
   818G11  C0ES56196   8.343   6.969   5.344
   818G11  C0GQ56197   8.144   7.133   5.611
   818G11  C0FJ56198   8.040   6.791   5.697
   818G11  C0ED56199   8.245   6.745   5.501
   818G11  C0ER56200   8.065   6.449   5.462
   818G11  C0EP56201   8.235   6.302   5.479
   818G11  C0E656202   8.449   6.611   5.405
   818G11  C0DE56203   8.688   6.395   5.385
   818G11  C0EA56204   8.434   6.124   5.498
   818G11  C0DF56205   8.757   6.271   5.379
   818G11  C08056206   8.722   5.970   5.582
   818G11  C0DO56207   8.882   6.245   5.431
   818G11  C0DJ56208   9.127   6.133   5.495
   818G11  C07K56209   8.951   5.830   5.629
   818G11  C07W56210   9.289   5.959   5.533
   818G11  C08356211   9.348   5.702   5.593
   818G11  C07J56212   8.990   5.696   5.668
   818G11  C06O56213   9.054   5.431   5.737
   818G11  C06M56214   9.280   5.475   5.669
   828G11  C07156215   8.994   6.552  11.161
   828G11  C07L56216   9.043   6.683  11.166
   828G11  C07M56217   9.027   6.761  11.281
   828G11  C07Y56218   9.078   6.892  11.290
   828G11  C08156219   9.139   6.958  11.181
   828G11  C08256220   9.184   7.093  11.194
   828G11  C0DI56221   9.253   7.181  11.095
   828G11  C0DH56222   9.283   7.171  10.962
   828G11  C0DG56223   9.325   7.293  10.904
   828G11  C0E956224   9.436   7.317  10.812
   828G11  C0E856225   9.501   7.441  10.870
   828G11  C0E756226   9.588   7.541  10.809
   828G11  C0EB56227   9.600   7.532  10.666
   828G11  C0EF56228   9.636   7.639  10.570
   828G11  C0EE56229   9.636   7.778  10.579
   828G11  C0FD56230   9.592   7.849  10.465
   828G11  C0FE56231   9.497   7.801  10.369
   828G11  H01B56232   9.448   7.707  10.388
   828G11  C0FF56233   9.455   7.874  10.257
   828G11  H01A56234   9.375   7.842  10.193
   828G11  C0FG56235   9.524   7.991  10.232
   828G11  H01856236   9.504   8.033  10.135
   828G11  C0FH56237   9.623   8.037  10.319
   828G11  C0FI56238   9.704   8.153  10.293
   828G11  H01956239   9.705   8.201  10.196
   828G11  O00K56240   9.798   8.200  10.381
   828G11  C0FL56241   9.806   8.140  10.502
   828G11  C0FK56242   9.740   8.024  10.532
   828G11  C0FM56243   9.761   7.960  10.658
   828G11  C0FN56244   9.829   8.028  10.763
   828G11  C0FP56245   9.881   8.151  10.734
   828G11  C0GO56246   9.924   8.239  10.834
   828G11  C0GN56247   9.966   8.371  10.819
   828G11  C0GR56248   9.988   8.414  10.684
   828G11  C0GS56249  10.041   8.537  10.648
   828G11  H01Q56250  10.043   8.577  10.547
   828G11  C0GT56251  10.053   8.621  10.758
   828G11  H01O56252  10.063   8.727  10.742
   828G11  C0GU56253  10.020   8.584  10.894
   828G11  H01P56254  10.013   8.656  10.974
   828G11  O00L56255   9.947   8.333  10.580
   828G11  C0GM56256   9.986   8.452  10.935
   828G11  C0GL56257   9.967   8.397  11.071
   828G11  H01R56258   9.982   8.464  11.154
   828G11  C0GK56259   9.938   8.262  11.084
   828G11  C0GP56260   9.924   8.166  11.188
   828G11  C0E256261   9.938   8.037  11.125
   828G11  C0E156262   9.879   7.940  11.210
   828G11  C0DU56263   9.798   7.839  11.168
   828G11  C0DT56264   9.770   7.787  11.039
   828G11  C0E456265   9.793   7.845  10.916
   828G11  C0E556266   9.731   7.772  10.813
   828G11  C0DS56267   9.671   7.685  11.008
   828G11  C0DR56268   9.605   7.639  11.123
   828G11  C0DD56269   9.501   7.545  11.123
   828G11  C0DC56270   9.449   7.562  11.262
   828G11  C0DP56271   9.499   7.669  11.339
   828G11  C0DA56272   9.467   7.713  11.477
   828G11  C0D956273   9.399   7.649  11.591
   828G11  C0CR56274   9.395   7.706  11.723
   828G11  C0C056275   9.459   7.826  11.755
   828G11  C0BZ56276   9.469   7.891  11.876
   828G11  C0C156277   9.520   8.021  11.894
   828G11  C0C756278   9.523   8.081  12.020
   828G11  C0C656279   9.592   8.200  12.040
   828G11  C0C956280   9.613   8.247  12.171
   828G11  C0B856281   9.683   8.368  12.188
   828G11  C0B756282   9.713   8.416  12.320
   828G11  C0B656283   9.765   8.539  12.371
   828G11  C0B556284   9.747   8.671  12.317
   828G11  H00Z56285   9.698   8.699  12.224
   828G11  C0B456286   9.771   8.759  12.433
   828G11  H01056287   9.753   8.865  12.434
   828G11  C0B356288   9.805   8.685  12.555
   828G11  C0AP56289   9.786   8.670  12.702
   828G11  C0AQ56290   9.776   8.533  12.721
   828G11  C0AR56291   9.694   8.480  12.822
   828G11  C0AS56292   9.629   8.365  12.791
   828G11  C0AT56293   9.620   8.306  12.664
   828G11  C0BA56294   9.695   8.360  12.561
   828G11  C0AU56295   9.536   8.202  12.636
   828G11  C0BE56296   9.513   8.164  12.509
   828G11  C0BI56297   9.425   8.062  12.489
   828G11  C0BJ56298   9.350   8.005  12.592
   828G11  C0BK56299   9.262   7.901  12.569
   828G11  C0BW56300   9.246   7.849  12.440
   828G11  C0BV56301   9.322   7.902  12.337
   828G11  C0BU56302   9.328   7.839  12.213
   828G11  C0BX56303   9.395   7.896  12.110
   828G11  C0BT56304   9.247   7.730  12.192
   828G11  C0CD56305   9.245   7.669  12.064
   828G11  C0CB56306   9.319   7.720  11.962
   828G11  C0CE56307   9.172   7.546  12.046
   828G11  C0CK56308   9.103   7.488  12.152
   828G11  C0BS56309   9.105   7.549  12.279
   828G11  C0CJ56310   9.028   7.496  12.387
   828G11  C0BP56311   9.025   7.562  12.510
   828G11  C0CI56312   8.945   7.520  12.617
   828G11  C0CH56313   8.956   7.582  12.741
   828G11  H01256314   8.897   7.538  12.820
   828G11  C0BN56315   9.047   7.687  12.766
   828G11  C0CG56316   9.049   7.746  12.895
   828G11  C0CF56317   8.985   7.685  13.009
   828G11  H01356318   8.938   7.588  13.010
   828G11  O00G56319   8.982   7.755  13.126
   828G11  C0AA56320   9.047   7.871  13.138
   828G11  C0A956321   9.024   7.940  13.260
   828G11  H00U56322   8.959   7.904  13.337
   828G11  C0A856323   9.085   8.064  13.277
   828G11  H00V56324   9.052   8.107  13.371
   828G11  C0A756325   9.180   8.120  13.182
   828G11  C0A656326   9.187   8.052  13.056
   828G11  C0A556327   9.274   8.089  12.953
   828G11  C0A456328   9.377   8.191  12.973
   828G11  C0A356329   9.417   8.290  13.074
   828G11  C0A256330   9.337   8.332  13.178
   828G11  C0A156331   9.375   8.441  13.265
   828G11  C0A056332   9.472   8.552  13.266
   828G11  C09Z56333   9.462   8.638  13.378
   828G11  C09Y56334   9.534   8.757  13.382
   828G11  H00Y56335   9.526   8.816  13.473
   828G11  C09X56336   9.603   8.798  13.271
   828G11  C09W56337   9.659   8.926  13.283
   828G11  H00R56338   9.646   8.985  13.373
   828G11  C0AX56339   9.732   8.983  13.170
   828G11  H00S56340   9.782   9.078  13.177
   828G11  C0AW56341   9.741   8.910  13.059
   828G11  H00T56342   9.803   8.941  12.976
   828G11  C0AN56343   9.681   8.772  13.049
   828G11  C0AO56344   9.697   8.698  12.927
   828G11  C0AM56345   9.610   8.721  13.153
   828G11  C0B256346   9.382   8.611  13.497
   828G11  O00D56347   9.381   8.687  13.592
   828G11  C0B156348   9.288   8.507  13.488
   828G11  H00W56349   9.223   8.495  13.573
   828G11  C0AL56350   9.550   8.591  13.150
   828G11  C0AK56351   9.575   8.514  13.035
   828G11  C0B056352   9.295   8.423  13.379
   828G11  C0AZ56353   9.212   8.308  13.365
   828G11  H00X56354   9.142   8.281  13.442
   828G11  C0AJ56355   9.515   8.380  13.013
   828G11  C0AH56356   9.472   8.205  12.869
   828G11  C0AE56357   9.276   8.020  12.823
   828G11  C0AD56358   9.199   7.907  12.805
   828G11  C0AY56359   9.240   8.246  13.235
   828G11  C0AB56360   9.120   7.933  13.035
   828G11  C0AC56361   9.128   7.857  12.912
   828G11  C0BM56362   9.116   7.740  12.660
   828G11  C0CM56363   8.854   7.415  12.592
   828G11  C09M56364   8.899   7.320  12.495
   828G11  C09856365   8.862   7.181  12.516
   828G11  C08R56366   8.878   7.062  12.438
   828G11  C08Q56367   8.847   6.940  12.506
   828G11  C08P56368   8.798   6.807  12.475
   828G11  C08Y56369   8.721   6.746  12.575
   828G11  C09756370   8.667   6.824  12.681
   828G11  C09656371   8.539   6.782  12.718
   828G11  C09056372   8.539   6.648  12.672
   828G11  C09556373   8.423   6.562  12.674
   828G11  C09456374   8.425   6.422  12.638
   828G11  C08J56375   8.522   6.354  12.560
   828G11  C08I56376   8.451   6.249  12.494
   828G11  C08H56377   8.512   6.232  12.365
   828G11  C08G56378   8.584   6.355  12.331
   828G11  C08F56379   8.637   6.421  12.207
   828G11  C08E56380   8.607   6.359  12.081
   828G11  C05956381   8.541   6.232  12.053
   828G11  C05856382   8.528   6.182  11.920
   828G11  C05756383   8.485   6.052  11.886
   828G11  C05656384   8.444   5.970  11.992
   828G11  C05556385   8.419   6.018  12.114
   828G11  C05456386   8.446   5.912  12.202
   828G11  C05356387   8.477   5.792  12.130
   828G11  C05256388   8.506   5.659  12.178
   828G11  C05156389   8.529   5.625  12.321
   828G11  C05U56390   8.531   5.724  12.426
   828G11  C05T56391   8.542   5.874  12.430
   828G11  C06K56392   8.546   5.908  12.566
   828G11  H00J56393   8.563   6.014  12.584
   828G11  C06L56394   8.532   5.792  12.650
   828G11  H00I56395   8.533   5.783  12.758
   828G11  C05V56396   8.528   5.678  12.560
   828G11  C06J56397   8.527   5.543  12.594
   828G11  H00K56398   8.518   5.520  12.699
   828G11  C05X56399   8.541   5.440  12.494
   828G11  C06I56400   8.562   5.298  12.524
   828G11  H00L56401   8.558   5.268  12.627
   828G11  C04Z56402   8.601   5.205  12.426
   828G11  C06H56403   8.619   5.068  12.463
   828G11  H00H56404   8.605   5.034  12.564
   828G11  C04Y56405   8.657   4.980  12.355
   828G11  C06G56406   8.699   4.848  12.392
   828G11  O00956407   8.703   4.807  12.507
   828G11  O00856408   8.750   4.766  12.293
   828G11  C04P56409   8.735   4.796  12.157
   828G11  C04J56410   8.780   4.714  12.045
   828G11  C04Q56411   8.832   4.590  12.055
   828G11  H00E56412   8.846   4.547  12.152
   828G11  C04M56413   8.870   4.517  11.940
   828G11  C04R56414   8.915   4.383  11.942
   828G11  H00F56415   8.924   4.330  12.035
   828G11  C04S56416   8.953   4.321  11.827
   828G11  H00G56417   8.973   4.215  11.837
   828G11  O00756418   8.945   4.373  11.704
   828G11  C03V56419   8.910   4.511  11.704
   828G11  C03U56420   8.916   4.576  11.583
   828G11  O00656421   8.952   4.502  11.474
   828G11  C03F56422   8.958   4.553  11.354
   828G11  C03E56423   8.920   4.683  11.329
   828G11  C03D56424   8.863   4.756  11.438
   828G11  C03C56425   8.821   4.888  11.415
   828G11  C03B56426   8.851   4.941  11.288
   828G11  C03A56427   8.810   5.072  11.259
   828G11  C03956428   8.744   5.151  11.357
   828G11  C03856429   8.739   5.280  11.292
   828G11  C03756430   8.777   5.253  11.159
   828G11  C03656431   8.777   5.351  11.069
   828G11  C02R56432   8.816   5.343  10.934
   828G11  C03556433   8.804   5.479  10.900
   828G11  C03R56434   8.763   5.563  10.998
   828G11  C03S56435   8.784   5.698  11.007
   828G11  C04956436   8.757   5.756  11.126
   828G11  C04856437   8.713   5.671  11.234
   828G11  C03P56438   8.721   5.528  11.237
   828G11  C04756439   8.678   5.741  11.344
   828G11  C04656440   8.628   5.689  11.461
   828G11  C04556441   8.614   5.555  11.506
   828G11  C03T56442   8.645   5.435  11.455
   828G11  C04456443   8.629   5.334  11.550
   828G11  C04356444   8.555   5.395  11.651
   828G11  C04256445   8.570   5.321  11.773
   828G11  C04156446   8.635   5.196  11.727
   828G11  C04056447   8.663   5.092  11.810
   828G11  C03Z56448   8.703   4.961  11.767
   828G11  C04H56449   8.708   4.892  11.888
   828G11  C04G56450   8.670   4.970  11.997
   828G11  C03N56451   8.756   4.896  11.646
   828G11  C03Y56452   8.809   4.772  11.673
   828G11  C03X56453   8.809   4.705  11.797
   828G11  C04F56454   8.648   5.097  11.953
   828G11  C04E56455   8.615   5.195  12.056
   828G11  C04O56456   8.633   5.157  12.190
   828G11  C04D56457   8.584   5.325  12.025
   828G11  C04V56458   8.565   5.420  12.131
   828G11  C04W56459   8.565   5.381  12.265
   828G11  C04C56460   8.555   5.389  11.903
   828G11  C04L56461   8.519   5.530  11.943
   828G11  C04U56462   8.500   5.635  11.854
   828G11  C05Q56463   8.487   5.775  11.878
   828G11  C05P56464   8.497   5.851  11.763
   828G11  C04T56465   8.539   5.767  11.664
   828G11  C04B56466   8.540   5.638  11.714
   828G11  C03M56467   8.665   5.199  11.582
   828G11  C04A56468   8.568   5.530  11.634
   828G11  C05H56469   8.587   5.795  11.536
   828G11  C05G56470   8.603   5.917  11.468
   828G11  C05F56471   8.568   6.048  11.505
   828G11  C05E56472   8.649   6.157  11.463
   828G11  C05L56473   8.751   6.185  11.362
   828G11  C05K56474   8.773   6.106  11.251
   828G11  C05J56475   8.739   5.967  11.242
   828G11  C06656476   8.848   6.163  11.142
   828G11  C06556477   8.894   6.295  11.149
   828G11  C06456478   8.877   6.366  11.269
   828G11  C06N56479   8.953   6.349  11.036
   828G11  C06956480   8.969   6.278  10.916
   828G11  C06P56481   9.028   6.336  10.806
   828G11  C06R56482   9.060   6.258  10.692
   828G11  C06B56483   9.019   6.130  10.686
   828G11  C06S56484   9.062   6.051  10.581
   828G11  C02G56485   9.038   5.914  10.582
   828G11  C02F56486   9.082   5.836  10.475
   828G11  C02756487   9.156   5.888  10.373
   828G11  C02656488   9.202   5.806  10.269
   828G11  C00E56489   9.292   5.856  10.178
   828G11  C00D56490   9.346   5.774  10.082
   828G11  C00C56491   9.437   5.824   9.998
   828G11  C00B56492   9.489   5.954   9.998
   828G11  C01556493   9.437   6.041  10.095
   828G11  C07F56494   9.485   6.165  10.113
   828G11  C07E56495   9.428   6.250  10.206
   828G11  C06W56496   9.325   6.202  10.289
   828G11  C06V56497   9.284   6.070  10.282
   828G11  C06X56498   9.274   6.286  10.392
   828G11  C07B56499   9.311   6.417  10.396
   828G11  C07C56500   9.417   6.461  10.316
   828G11  C0FU56501   9.459   6.592  10.326
   828G11  C0F756502   9.560   6.638  10.246
   828G11  C0F656503   9.604   6.771  10.260
   828G11  C0F856504   9.704   6.815  10.175
   828G11  C0F956505   9.755   6.947  10.189
   828G11  C0FA56506   9.869   6.988  10.120
   828G11  C0FZ56507   9.925   6.898  10.028
   828G11  C0G056508  10.041   6.934   9.956
   828G11  C0GD56509  10.100   7.056   9.978
   828G11  C0FC56510  10.042   7.149  10.069
   828G11  C0GH56511  10.102   7.272  10.089
   828G11  C0EY56512  10.038   7.363  10.173
   828G11  C0EX56513  10.094   7.493  10.196
   828G11  C0EW56514  10.016   7.581  10.270
   828G11  C0FR56515  10.071   7.709  10.297
   828G11  H01D56516  10.016   7.787  10.347
   828G11  C0FS56517  10.205   7.742  10.260
   828G11  H01C56518  10.243   7.842  10.274
   828G11  C0GJ56519  10.279   7.648  10.192
   828G11  H01N56520  10.379   7.676  10.160
   828G11  C0EV56521   9.890   7.549  10.316
   828G11  C0FT56522   9.807   7.645  10.379
   828G11  H01E56523   9.823   7.750  10.398
   828G11  C0EU56524   9.852   7.416  10.311
   828G11  C0ET56525   9.750   7.367  10.387
   828G11  C0EI56526   9.703   7.240  10.396
   828G11  C0F156527   9.760   7.154  10.305
   828G11  C0F056528   9.866   7.198  10.220
   828G11  C0EH56529   9.597   7.205  10.483
   828G11  C0EG56530   9.556   7.287  10.597
   828G11  C0EJ56531   9.545   7.076  10.467
   828G11  C0F356532   9.590   6.991  10.365
   828G11  C0EK56533   9.447   7.025  10.554
   828G11  C0EL56534   9.410   7.104  10.668
   828G11  C0EM56535   9.319   7.035  10.759
   828G11  C0EN56536   9.271   6.913  10.724
   828G11  C07I56537   9.199   6.856  10.831
   828G11  C07456538   9.163   6.719  10.828
   828G11  C07356539   9.098   6.671  10.934
   828G11  C07256540   9.053   6.540  10.931
   828G11  C07556541   9.188   6.652  10.712
   828G11  C07656542   9.260   6.711  10.611
   828G11  C07856543   9.303   6.633  10.506
   828G11  C07G56544   9.142   6.520  10.705
   828G11  C07056545   9.177   6.449  10.593
   828G11  C07Z56546   9.200   6.935  10.944
   828G11  C07756547   9.313   6.836  10.616
   828G11  C0EO56548   9.402   6.894  10.530
   828G11  C0F456549   9.445   6.811  10.427
   828G11  C0EQ56550   9.686   7.455  10.471
   828G11  C0FQ56551  10.220   7.524  10.151
   828G11  C0GI56552  10.277   7.435  10.059
   828G11  H01L56553  10.375   7.463  10.024
   828G11  C0EZ56554   9.917   7.330  10.233
   828G11  C0GG56555  10.224   7.307  10.032
   828G11  C0GF56556  10.281   7.219   9.946
   828G11  H01M56557  10.379   7.232   9.903
   828G11  C0GE56558  10.215   7.095   9.915
   828G11  H01K56559  10.260   7.024   9.847
   828G11  O00J56560  10.108   6.850   9.869
   828G11  C0GA56561  10.067   6.718   9.859
   828G11  C0G956562  10.138   6.627   9.781
   828G11  H01H56563  10.215   6.673   9.722
   828G11  C0G856564  10.104   6.493   9.773
   828G11  C0G756565  10.178   6.391   9.701
   828G11  H01I56566  10.280   6.397   9.665
   828G11  O00I56567  10.134   6.260   9.694
   828G11  C0G656568  10.033   6.227   9.769
   828G11  H01J56569  10.022   6.119   9.765
   828G11  C02D56570   9.947   6.323   9.835
   828G11  C02C56571   9.829   6.284   9.897
   828G11  C01756572   9.769   6.155   9.876
   828G11  C01656573   9.649   6.117   9.940
   828G11  O00156574   9.813   6.073   9.777
   828G11  C01856575   9.782   5.941   9.773
   828G11  C00956576   9.664   5.894   9.837
   828G11  C00856577   9.609   5.763   9.830
   828G11  C00756578   9.647   5.640   9.773
   828G11  C00656579   9.781   5.616   9.731
   828G11  C00556580   9.827   5.485   9.692
   828G11  C00456581   9.771   5.351   9.703
   828G11  C00356582   9.658   5.299   9.777
   828G11  C00256583   9.644   5.162   9.803
   828G11  C00P56584   9.547   5.112   9.893
   828G11  C00O56585   9.549   4.976   9.924
   828G11  C00N56586   9.467   4.926  10.026
   828G11  C01056587   9.478   4.791  10.071
   828G11  C01156588   9.408   4.748  10.183
   828G11  C01Q56589   9.439   4.618  10.239
   828G11  C01U56590   9.545   4.544  10.184
   828G11  C01256591   9.604   4.588  10.064
   828G11  H00056592   9.685   4.521  10.038
   828G11  C01V56593   9.575   4.427  10.250
   828G11  H00756594   9.649   4.360  10.207
   828G11  O00556595   9.501   4.385  10.359
   828G11  C01W56596   9.380   4.442  10.390
   828G11  C03156597   9.303   4.383  10.490
   828G11  C03256598   9.182   4.448  10.522
   828G11  H00A56599   9.109   4.400  10.586
   828G11  C03356600   9.158   4.576  10.473
   828G11  H00B56601   9.058   4.613  10.488
   828G11  C01O56602   9.254   4.649  10.396
   828G11  C01N56603   9.240   4.779  10.358
   828G11  C01M56604   9.155   4.868  10.432
   828G11  C01L56605   9.088   4.890  10.568
   828G11  C01K56606   9.035   5.021  10.559
   828G11  C01Y56607   8.987   5.095  10.665
   828G11  C02I56608   8.969   5.037  10.790
   828G11  C02N56609   8.911   5.114  10.887
   828G11  C02M56610   8.895   5.060  11.018
   828G11  C02L56611   8.928   4.927  11.047
   828G11  C02K56612   8.991   4.851  10.949
   828G11  C02U56613   9.034   4.726  10.980
   828G11  C02V56614   9.002   4.667  11.101
   828G11  C03H56615   9.021   4.524  11.128
   828G11  H00C56616   9.052   4.452  11.054
   828G11  C02W56617   9.122   4.661  10.894
   828G11  C02X56618   9.140   4.720  10.771
   828G11  C02Y56619   9.264   4.656  10.729
   828G11  H00856620   9.326   4.670  10.642
   828G11  C02Z56621   9.299   4.556  10.828
   828G11  O00456622   9.391   4.480  10.834
   828G11  O00356623   9.209   4.562  10.925
   828G11  C02J56624   9.011   4.902  10.812
   828G11  C01Z56625   8.980   5.232  10.636
   828G11  C02056626   9.027   5.292  10.514
   828G11  C01I56627   9.081   5.212  10.413
   828G11  C01H56628   9.136   5.264  10.297
   828G11  C00K56629   9.202   5.178  10.218
   828G11  C01S56630   9.213   5.045  10.254
   828G11  C01456631   9.305   4.963  10.198
   828G11  C00J56632   9.282   5.227  10.118
   828G11  C00I56633   9.293   5.366  10.097
   828G11  C00H56634   9.217   5.450  10.184
   828G11  C00G56635   9.233   5.586  10.176
   828G11  C00S56636   9.379   5.416  10.003
   828G11  C00T56637   9.382   5.552   9.992
   828G11  C00U56638   9.464   5.603   9.894
   828G11  C00R56639   9.469   5.332   9.938
   828G11  C00L56640   9.373   5.141  10.050
   828G11  C02856641   9.143   5.401  10.284
   828G11  C02356642   9.086   5.482  10.381
   828G11  C02456643   9.102   5.616  10.378
   828G11  C02156644   9.020   5.422  10.492
   828G11  C02256645   8.980   5.506  10.593
   828G11  C02H56646   8.995   5.643  10.585
   828G11  C03056647   8.948   5.725  10.687
   828G11  C03456648   8.881   5.674  10.797
   828G11  C02P56649   8.926   5.450  10.708
   828G11  C02B56650   8.925   5.312  10.727
   828G11  C01J56651   9.073   5.077  10.441
   828G11  C01X56652   9.078   4.830  10.704
   828G11  C01T56653   9.141   4.993  10.364
   828G11  H00956654   9.328   4.286  10.529
   828G11  C01P56655   9.361   4.573  10.342
   828G11  C01R56656   9.313   4.831  10.242
   828G11  C00Z56657   9.574   4.712  10.007
   828G11  O00056658   9.650   4.758   9.901
   828G11  C00M56659   9.379   5.008  10.090
   828G11  C00Y56660   9.634   4.885   9.858
   828G11  C01356661   9.708   4.937   9.756
   828G11  H00156662   9.758   4.855   9.706
   828G11  C00Q56663   9.461   5.196   9.964
   828G11  C00156664   9.726   5.075   9.735
   828G11  C00056665   9.825   5.121   9.654
   828G11  H00656666   9.885   5.057   9.591
   828G11  C00W56667   9.560   5.384   9.839
   828G11  C01G56668   9.854   5.255   9.644
   828G11  H00556669   9.929   5.274   9.568
   828G11  C01C56670   9.964   5.514   9.646
   828G11  H00256671  10.040   5.438   9.632
   828G11  C01B56672   9.993   5.655   9.645
   828G11  C01D56673  10.099   5.727   9.596
   828G11  H00356674  10.189   5.678   9.563
   828G11  C01E56675  10.082   5.858   9.592
   828G11  H00456676  10.160   5.918   9.548
   828G11  O00256677   9.975   5.928   9.648
   828G11  C01A56678   9.878   5.718   9.698
   828G11  C00V56679   9.561   5.531   9.825
   828G11  C01956680   9.872   5.858   9.710
   828G11  C02E56681   9.758   6.372   9.978
   828G11  C0FX56682   9.799   6.505   9.991
   828G11  C0FW56683   9.733   6.592  10.076
   828G11  C0GB56684   9.916   6.542   9.924
   828G11  C0G356685   9.643   6.328  10.051
   828G11  C07H56686   9.578   6.417  10.139
   828G11  C0GC56687   9.990   6.454   9.845
   828G11  C0G256688   9.955   6.675   9.934
   828G11  C0G156689   9.882   6.765  10.016
   828G11  C0FB56690   9.926   7.115  10.132
   828G11  C0F256691   9.697   7.030  10.286
   828G11  C0FY56692   9.771   6.724  10.086
   828G11  C0F556693   9.548   6.860  10.348
   828G11  C0FV56694   9.627   6.549  10.158
   828G11  C07956695   9.400   6.678  10.414
   828G11  C07A56696   9.263   6.497  10.498
   828G11  C06Y56697   9.187   6.237  10.488
   828G11  C07D56698   9.468   6.382  10.217
   828G11  C01F56699   9.595   6.200  10.035
   828G11  C00A56700   9.594   5.990   9.918
   828G11  C00X56701   9.495   5.733   9.901
   828G11  C00F56702   9.317   5.637  10.077
   828G11  C02956703   9.337   5.989  10.184
   828G11  C02556704   9.174   5.674  10.271
   828G11  C06U56705   9.190   6.023  10.373
   828G11  C02A56706   9.055   5.697  10.479
   828G11  C05Y56707   8.966   5.861  10.684
   828G11  C05Z56708   8.932   5.938  10.798
   828G11  C06056709   8.867   5.883  10.908
   828G11  C06256710   8.839   5.956  11.019
   828G11  C06T56711   9.146   6.107  10.481
   828G11  C06A56712   8.958   6.073  10.798
   828G11  C06Z56713   9.140   6.316  10.589
   828G11  C06Q56714   9.079   6.466  10.814
   828G11  C06856715   8.929   6.147  10.914
   828G11  C06756716   8.872   6.089  11.026
   828G11  C06356717   8.805   6.317  11.373
   828G11  C06C56718   8.790   6.402  11.486
   828G11  C06D56719   8.718   6.360  11.595
   828G11  C06E56720   8.713   6.424  11.724
   828G11  C07Q56721   8.777   6.541  11.733
   828G11  C07P56722   8.840   6.591  11.615
   828G11  C07T56723   8.892   6.718  11.624
   828G11  C07U56724   8.961   6.772  11.508
   828G11  C07V56725   9.019   6.898  11.519
   828G11  C08456726   9.010   6.970  11.640
   828G11  C08C56727   8.948   6.917  11.754
   828G11  C08B56728   8.935   6.985  11.869
   828G11  C08A56729   8.881   6.921  11.976
   828G11  C08956730   8.834   6.794  11.981
   828G11  C08856731   8.786   6.740  12.102
   828G11  C08756732   8.731   6.610  12.099
   828G11  C08656733   8.724   6.547  11.972
   828G11  C08X56734   8.798   6.810  12.226
   828G11  C08T56735   8.832   6.952  12.218
   828G11  C08D56736   8.836   6.732  11.860
   828G11  C08U56737   8.874   6.998  12.092
   828G11  C08V56738   8.914   7.131  12.095
   828G11  C0CY56739   8.979   7.186  11.990
   828G11  C0CX56740   9.045   7.303  12.010
   828G11  C0CW56741   9.109   7.365  11.903
   828G11  C0CV56742   9.114   7.296  11.785
   828G11  C0D456743   9.049   7.171  11.768
   828G11  C0CU56744   9.184   7.346  11.683
   828G11  C0CT56745   9.254   7.472  11.693
   828G11  C0CS56746   9.254   7.536  11.817
   828G11  C0D656747   9.187   7.268  11.572
   828G11  C0EC56748   9.123   7.147  11.549
   828G11  C07X56749   9.132   7.081  11.432
   828G11  C0DL56750   9.251   7.328  11.464
   828G11  C0DK56751   9.242   7.270  11.343
   828G11  C0DN56752   9.305   7.354  11.255
   828G11  C0D856753   9.316   7.455  11.462
   828G11  C08W56754   8.915   7.172  12.224
   828G11  C0CQ56755   8.982   7.304  12.252
   828G11  C09356756   8.980   7.118  11.871
   828G11  C09256757   9.061   7.094  11.650
   828G11  C08556758   8.893   6.789  11.747
   828G11  C07S56759   8.779   6.606  11.854
   828G11  C06F56760   8.652   6.371  11.836
   828G11  C07O56761   8.851   6.518  11.497
   828G11  C07N56762   8.920   6.569  11.390
   828G11  C05D56763   8.641   6.247  11.577
   828G11  C05C56764   8.575   6.197  11.688
   828G11  C05N56765   8.525   6.073  11.645
   828G11  C05M56766   8.666   5.885  11.345
   828G11  C05I56767   8.779   5.893  11.131
   828G11  C06156768   8.840   5.752  10.901
   828G11  C02Q56769   8.874   5.536  10.798
   828G11  C02O56770   8.883   5.250  10.847
   828G11  C03Q56771   8.755   5.482  11.106
   828G11  C03O56772   8.701   5.420  11.332
   828G11  C03L56773   8.726   5.101  11.490
   828G11  C02S56774   8.827   5.127  11.132
   828G11  C02T56775   8.907   4.869  11.179
   828G11  C03K56776   8.768   4.964  11.522
   828G11  C03I56777   8.944   4.742  11.204
   828G11  C03G56778   9.002   4.466  11.253
   828G11  H00D56779   9.013   4.361  11.274
   828G11  C03J56780   8.859   4.704  11.567
   828G11  C03W56781   8.859   4.582  11.815
   828G11  C04I56782   8.771   4.763  11.912
   828G11  C04K56783   8.686   4.922  12.124
   828G11  C04N56784   8.661   5.019  12.225
   828G11  C04X56785   8.599   5.245  12.292
   828G11  C05056786   8.541   5.482  12.358
   828G11  C05W56787   8.524   5.551  12.084
   828G11  C05S56788   8.503   5.964  12.320
   828G11  C05R56789   8.466   5.833  11.993
   828G11  C05O56790   8.497   5.990  11.756
   828G11  C05B56791   8.580   6.257  11.820
   828G11  C05A56792   8.494   6.135  12.149
   828G11  C07R56793   8.658   6.426  11.963
   828G11  C08N56794   8.689   6.551  12.219
   828G11  C08M56795   8.710   6.612  12.346
   828G11  C08L56796   8.650   6.552  12.457
   828G11  C09156797   8.527   6.110  12.290
   828G11  C09K56798   8.310   6.286  12.502
   828G11  H00M56799   8.236   6.263  12.426
   828G11  C08K56800   8.593   6.425  12.455
   828G11  C09J56801   8.295   6.389  12.597
   828G11  C09I56802   8.209   6.508  12.621
   828G11  C09L56803   8.067   6.525  12.606
   828G11  H00N56804   7.999   6.452  12.565
   828G11  C09Q56805   8.019   6.641  12.650
   828G11  H00O56806   7.914   6.663  12.646
   828G11  O00B56807   8.097   6.739  12.714
   828G11  C09G56808   8.233   6.733  12.721
   828G11  C09F56809   8.299   6.859  12.758
   828G11  O00A56810   8.207   6.959  12.785
   828G11  C09P56811   8.265   7.067  12.848
   828G11  H00P56812   8.224   7.110  12.938
   828G11  C09O56813   8.389   7.118  12.795
   828G11  C09D56814   8.487   7.018  12.764
   828G11  C09C56815   8.624   7.045  12.725
   828G11  C09N56816   8.696   7.164  12.695
   828G11  C09T56817   8.642   7.293  12.694
   828G11  C09S56818   8.515   7.329  12.754
   828G11  C0CP56819   8.526   7.464  12.760
   828G11  C0CN56820   8.645   7.520  12.709
   828G11  C0CO56821   8.661   7.659  12.711
   828G11  H01456822   8.748   7.708  12.670
   828G11  C0CZ56823   8.558   7.736  12.773
   828G11  H01556824   8.569   7.842  12.789
   828G11  C0D056825   8.435   7.679  12.827
   828G11  C0G556826   8.338   7.743  12.913
   828G11  H01F56827   8.361   7.846  12.936
   828G11  C0G456828   8.230   7.684  12.954
   828G11  H01G56829   8.162   7.747  13.010
   828G11  O00H56830   8.203   7.553  12.935
   828G11  C0D256831   8.298   7.479  12.872
   828G11  C09V56832   8.295   7.340  12.858
   828G11  H00Q56833   8.204   7.297  12.898
   828G11  C0D156834   8.419   7.539  12.821
   828G11  C09R56835   8.402   7.260  12.805
   828G11  C09H56836   8.290   6.610  12.680
   828G11  C09E56837   8.439   6.879  12.755
   828G11  C09B56838   8.713   6.946  12.699
   828G11  C08Z56839   8.632   6.641  12.563
   828G11  C08O56840   8.775   6.747  12.352
   828G11  C09A56841   8.836   6.989  12.642
   828G11  C08S56842   8.864   7.066  12.301
   828G11  C09956843   8.831   7.131  12.643
   828G11  C09U56844   8.723   7.413  12.659
   828G11  C0BO56845   9.104   7.678  12.533
   828G11  C0CL56846   8.969   7.370  12.379
   828G11  C0D356847   9.049   7.362  12.138
   828G11  C0D556848   9.174   7.489  11.919
   828G11  C0BR56849   9.172   7.671  12.298
   828G11  C0BQ56850   9.169   7.734  12.424
   828G11  C0BL56851   9.188   7.856  12.676
   828G11  C0AF56852   9.358   8.061  12.718
   828G11  C0BH56853   9.404   8.010  12.362
   828G11  C0BG56854   9.471   8.066  12.255
   828G11  C0BD56855   9.583   8.227  12.401
   828G11  C0AG56856   9.458   8.152  12.739
   828G11  C0AI56857   9.548   8.316  12.892
   828G11  C0AV56858   9.661   8.558  12.929
   828G11  C0BB56859   9.777   8.469  12.595
   828G11  O00C56860   9.754   8.754  12.813
   828G11  C0BC56861   9.822   8.556  12.499
   828G11  C0B956862   9.670   8.336  12.427
   828G11  O00E56863   9.733   8.434  12.075
   828G11  C0CA56864   9.712   8.394  11.951
   828G11  O00F56865   9.749   8.467  11.859
   828G11  C0BF56866   9.561   8.175  12.278
   828G11  C0C556867   9.644   8.269  11.936
   828G11  C0C456868   9.632   8.221  11.804
   828G11  H01156869   9.665   8.284  11.723
   828G11  C0C856870   9.458   8.018  12.126
   828G11  C0C256871   9.574   8.090  11.787
   828G11  C0C356872   9.568   8.018  11.663
   828G11  C0DY56873   9.623   8.054  11.543
   828G11  H01656874   9.693   8.134  11.522
   828G11  C0DX56875   9.593   7.943  11.445
   828G11  C0DW56876   9.705   7.918  11.360
   828G11  C0BY56877   9.398   7.834  11.983
   828G11  C0DB56878   9.517   7.890  11.644
   828G11  C0CC56879   9.326   7.654  11.833
   828G11  C0D756880   9.328   7.530  11.585
   828G11  C0DZ56881   9.520   7.839  11.515
   828G11  C0DM56882   9.361   7.468  11.324
   828G11  C0DQ56883   9.600   7.715  11.251
   828G11  C0DV56884   9.695   7.817  11.264
   828G11  C0E056885   9.813   8.006  11.318
   828G11  C0FO56886   9.915   8.055  10.989
   828G11  C0E356887   9.828   8.150  11.300
   828G11  H01756888   9.759   8.222  11.341
   828G11  C0GV56889   9.923   8.191  10.964
   828G11  C0ES56890   9.851   7.974  10.893
   828G11  C0GQ56891   9.883   8.210  10.602
   828G11  C0FJ56892   9.650   7.971  10.437
   828G11  C0ED56893   9.704   7.835  10.687
   828G11  C0ER56894   9.711   7.588  10.462
   828G11  C0EP56895   9.611   7.421  10.581
   828G11  C0E656896   9.655   7.657  10.869
   828G11  C0DE56897   9.452   7.464  11.008
   828G11  C0EA56898   9.463   7.237  10.690
   828G11  C0DF56899   9.337   7.387  11.009
   828G11  C08056900   9.263   7.055  10.895
   828G11  C0DO56901   9.304   7.312  11.124
   828G11  C0DJ56902   9.180   7.144  11.323
   828G11  C07K56903   9.132   6.889  11.059
   828G11  C07W56904   9.080   6.956  11.413
   828G11  C08356905   8.967   6.700  11.393
   828G11  C07J56906   9.089   6.749  11.054
   828G11  C06O56907   9.002   6.478  11.044
   828G11  C06M56908   8.934   6.496  11.272
   838G11  C07156909   4.392   9.789   5.870
   838G11  C07L56910   4.439   9.905   5.807
   838G11  C07M56911   4.425   9.923   5.670
   838G11  C07Y56912   4.481  10.030   5.599
   838G11  C08156913   4.549  10.136   5.672
   838G11  C08256914   4.618  10.236   5.596
   838G11  C0DI56915   4.699  10.353   5.646
   838G11  C0DH56916   4.740  10.402   5.772
   838G11  C0DG56917   4.803  10.525   5.758
   838G11  C0E956918   4.913  10.588   5.824
   838G11  C0E856919   4.976  10.670   5.711
   838G11  C0E756920   5.062  10.792   5.722
   838G11  C0EB56921   5.111  10.836   5.853
   838G11  C0EF56922   5.171  10.963   5.885
   838G11  C0EE56923   5.138  11.091   5.831
   838G11  C0FD56924   5.119  11.204   5.924
   838G11  C0FE56925   5.093  11.195   6.068
   838G11  H01B56926   5.074  11.110   6.132
   838G11  C0FF56927   5.078  11.311   6.144
   838G11  H01A56928   5.047  11.300   6.247
   838G11  C0FG56929   5.074  11.435   6.084
   838G11  H01856930   5.046  11.519   6.146
   838G11  C0FH56931   5.098  11.448   5.950
   838G11  C0FI56932   5.100  11.576   5.887
   838G11  H01956933   5.095  11.668   5.943
   838G11  O00K56934   5.118  11.593   5.752
   838G11  C0FL56935   5.151  11.482   5.685
   838G11  C0FK56936   5.151  11.348   5.738
   838G11  C0FM56937   5.172  11.240   5.649
   838G11  C0FN56938   5.219  11.266   5.520
   838G11  C0FP56939   5.219  11.396   5.471
   838G11  C0GO56940   5.247  11.431   5.339
   838G11  C0GN56941   5.225  11.549   5.269
   838G11  C0GR56942   5.165  11.651   5.352
   838G11  C0GS56943   5.135  11.770   5.292
   838G11  H01Q56944   5.095  11.857   5.343
   838G11  C0GT56945   5.155  11.791   5.157
   838G11  H01O56946   5.134  11.889   5.115
   838G11  C0GU56947   5.215  11.691   5.079
   838G11  H01P56948   5.257  11.717   4.983
   838G11  O00L56949   5.155  11.631   5.486
   838G11  C0GM56950   5.256  11.566   5.135
   838G11  C0GL56951   5.321  11.454   5.068
   838G11  H01R56952   5.348  11.463   4.964
   838G11  C0GK56953   5.334  11.329   5.132
   838G11  C0GP56954   5.370  11.195   5.092
   838G11  C0E256955   5.395  11.114   5.215
   838G11  C0E156956   5.344  10.980   5.189
   838G11  C0DU56957   5.253  10.907   5.272
   838G11  C0DT56958   5.219  10.916   5.407
   838G11  C0E456959   5.218  11.028   5.477
   838G11  C0E556960   5.164  11.006   5.597
   838G11  C0DS56961   5.134  10.830   5.473
   838G11  C0DR56962   5.059  10.747   5.393
   838G11  C0DD56963   4.959  10.657   5.434
   838G11  C0DC56964   4.902  10.602   5.306
   838G11  C0DP56965   4.963  10.661   5.189
   838G11  C0DA56966   4.929  10.643   5.044
   838G11  C0D956967   4.836  10.543   4.982
   838G11  C0CR56968   4.806  10.557   4.840
   838G11  C0C056969   4.859  10.651   4.757
   838G11  C0BZ56970   4.826  10.673   4.620
   838G11  C0C156971   4.889  10.771   4.547
   838G11  C0C756972   4.857  10.791   4.415
   838G11  C0C656973   4.922  10.888   4.335
   838G11  C0C956974   4.878  10.916   4.210
   838G11  C0B856975   4.939  11.022   4.140
   838G11  C0B756976   4.908  11.047   4.003
   838G11  C0B656977   4.972  11.133   3.906
   838G11  C0B556978   5.117  11.128   3.897
   838G11  H00Z56979   5.191  11.091   3.966
   838G11  C0B456980   5.155  11.163   3.764
   838G11  H01056981   5.252  11.152   3.718
   838G11  C0B356982   5.031  11.173   3.684
   838G11  C0AP56983   4.982  11.108   3.566
   838G11  C0AQ56984   4.852  11.060   3.607
   838G11  C0AR56985   4.796  10.951   3.535
   838G11  C0AS56986   4.711  10.881   3.606
   838G11  C0AT56987   4.700  10.885   3.746
   838G11  C0BA56988   4.769  10.980   3.811
   838G11  C0AU56989   4.640  10.779   3.813
   838G11  C0BE56990   4.664  10.768   3.949
   838G11  C0BI56991   4.614  10.656   4.018
   838G11  C0BJ56992   4.558  10.552   3.948
   838G11  C0BK56993   4.516  10.440   4.014
   838G11  C0BW56994   4.526  10.433   4.150
   838G11  C0BV56995   4.589  10.531   4.223
   838G11  C0BU56996   4.622  10.512   4.353
   838G11  C0BX56997   4.703  10.604   4.420
   838G11  C0BT56998   4.580  10.397   4.423
   838G11  C0CD56999   4.611  10.387   4.560
   838G11  C0CB57000   4.693  10.475   4.628
   838G11  C0CE57001   4.561  10.277   4.630
   838G11  C0CK57002   4.486  10.182   4.563
   838G11  C0BS57003   4.468  10.186   4.422
   838G11  C0CJ57004   4.411  10.073   4.354
   838G11  C0BP57005   4.398  10.084   4.219
   838G11  C0CI57006   4.350   9.975   4.143
   838G11  C0CH57007   4.342   9.993   4.000
   838G11  H01257008   4.319   9.899   3.951
   838G11  C0BN57009   4.370  10.113   3.935
   838G11  C0CG57010   4.355  10.120   3.797
   838G11  C0CF57011   4.315  10.008   3.714
   838G11  H01357012   4.298   9.906   3.746
   838G11  O00G57013   4.293  10.023   3.580
   838G11  C0AA57014   4.337  10.136   3.517
   838G11  C0A957015   4.308  10.151   3.384
   838G11  H00U57016   4.245  10.084   3.327
   838G11  C0A857017   4.376  10.247   3.317
   838G11  H00V57018   4.356  10.254   3.211
   838G11  C0A757019   4.468  10.337   3.376
   838G11  C0A657020   4.457  10.346   3.519
   838G11  C0A557021   4.505  10.451   3.595
   838G11  C0A457022   4.552  10.571   3.526
   838G11  C0A357023   4.612  10.607   3.394
   838G11  C0A257024   4.647  10.509   3.301
   838G11  C0A157025   4.701  10.546   3.177
   838G11  C0A057026   4.783  10.654   3.126
   838G11  C09Z57027   4.829  10.638   2.997
   838G11  C09Y57028   4.922  10.727   2.941
   838G11  H00Y57029   4.965  10.709   2.843
   838G11  C09X57030   4.972  10.835   3.021
   838G11  C09W57031   5.070  10.919   2.955
   838G11  H00R57032   5.090  10.897   2.851
   838G11  C0AX57033   5.142  11.016   3.026
   838G11  H00S57034   5.209  11.084   2.976
   838G11  C0AW57035   5.102  11.033   3.159
   838G11  H00T57036   5.162  11.103   3.215
   838G11  C0AN57037   4.999  10.960   3.224
   838G11  C0AO57038   4.954  10.980   3.358
   838G11  C0AM57039   4.934  10.855   3.149
   838G11  C0B257040   4.782  10.544   2.899
   838G11  O00D57041   4.816  10.544   2.782
   838G11  C0B157042   4.704  10.437   2.948
   838G11  H00W57043   4.667  10.367   2.875
   838G11  C0AL57044   4.830  10.768   3.208
   838G11  C0AK57045   4.786  10.806   3.338
   838G11  C0B057046   4.663  10.446   3.080
   838G11  C0AZ57047   4.574  10.358   3.147
   838G11  H00X57048   4.526  10.272   3.102
   838G11  C0AJ57049   4.683  10.734   3.408
   838G11  C0AH57050   4.579  10.680   3.607
   838G11  C0AE57051   4.499  10.451   3.733
   838G11  C0AD57052   4.446  10.344   3.804
   838G11  C0AY57053   4.554  10.401   3.286
   838G11  C0AB57054   4.391  10.242   3.591
   838G11  C0AC57055   4.399  10.235   3.733
   838G11  C0BM57056   4.416  10.217   4.011
   838G11  C0CM57057   4.330   9.847   4.204
   838G11  C09M57058   4.372   9.831   4.341
   838G11  C09857059   4.390   9.696   4.380
   838G11  C08R57060   4.366   9.640   4.511
   838G11  C08Q57061   4.407   9.504   4.525
   838G11  C08P57062   4.378   9.388   4.606
   838G11  C08Y57063   4.395   9.262   4.553
   838G11  C09757064   4.418   9.252   4.418
   838G11  C09657065   4.343   9.145   4.371
   838G11  C09057066   4.328   9.059   4.485
   838G11  C09557067   4.249   8.942   4.484
   838G11  C09457068   4.232   8.862   4.602
   838G11  C08J57069   4.251   8.888   4.736
   838G11  C08I57070   4.167   8.808   4.813
   838G11  C08H57071   4.130   8.876   4.937
   838G11  C08G57072   4.181   9.016   4.925
   838G11  C08F57073   4.179   9.143   4.998
   838G11  C08E57074   4.129   9.150   5.136
   838G11  C05957075   4.076   9.043   5.208
   838G11  C05857076   4.039   9.058   5.347
   838G11  C05757077   3.995   8.961   5.436
   838G11  C05657078   3.971   8.837   5.374
   838G11  C05557079   3.967   8.817   5.241
   838G11  C05457080   3.984   8.678   5.218
   838G11  C05357081   3.992   8.615   5.347
   838G11  C05257082   4.025   8.478   5.380
   838G11  C05157083   4.070   8.383   5.283
   838G11  C05U57084   4.114   8.419   5.147
   838G11  C05T57085   4.121   8.538   5.064
   838G11  C06K57086   4.158   8.494   4.935
   838G11  H00J57087   4.163   8.566   4.854
   838G11  C06L57088   4.180   8.354   4.937
   838G11  H00I57089   4.204   8.293   4.851
   838G11  C05V57090   4.150   8.307   5.065
   838G11  C06J57091   4.152   8.176   5.103
   838G11  H00K57092   4.171   8.100   5.030
   838G11  C05X57093   4.141   8.137   5.232
   838G11  C06I57094   4.160   8.005   5.284
   838G11  H00L57095   4.177   7.926   5.211
   838G11  C04Z57096   4.156   7.977   5.423
   838G11  C06H57097   4.187   7.843   5.468
   838G11  H00H57098   4.216   7.763   5.401
   838G11  C04Y57099   4.180   7.814   5.608
   838G11  C06G57100   4.215   7.679   5.646
   838G11  O00957101   4.231   7.585   5.569
   838G11  O00857102   4.226   7.657   5.786
   838G11  C04P57103   4.193   7.752   5.873
   838G11  C04J57104   4.195   7.733   6.013
   838G11  C04Q57105   4.226   7.620   6.089
   838G11  H00E57106   4.268   7.534   6.040
   838G11  C04M57107   4.213   7.606   6.232
   838G11  C04R57108   4.231   7.485   6.304
   838G11  H00F57109   4.256   7.396   6.249
   838G11  C04S57110   4.212   7.480   6.436
   838G11  H00G57111   4.205   7.384   6.487
   838G11  O00757112   4.180   7.596   6.508
   838G11  C03V57113   4.165   7.714   6.446
   838G11  C03U57114   4.150   7.829   6.518
   838G11  O00657115   4.146   7.815   6.655
   838G11  C03F57116   4.133   7.927   6.728
   838G11  C03E57117   4.120   8.057   6.675
   838G11  C03D57118   4.117   8.066   6.533
   838G11  C03C57119   4.102   8.191   6.476
   838G11  C03B57120   4.106   8.302   6.563
   838G11  C03A57121   4.088   8.435   6.517
   838G11  C03957122   4.072   8.457   6.379
   838G11  C03857123   4.064   8.603   6.372
   838G11  C03757124   4.068   8.645   6.503
   838G11  C03657125   4.067   8.777   6.536
   838G11  C02R57126   4.092   8.845   6.654
   838G11  C03557127   4.090   8.981   6.619
   838G11  C03R57128   4.077   8.996   6.488
   838G11  C03S57129   4.111   9.105   6.412
   838G11  C04957130   4.111   9.093   6.277
   838G11  C04857131   4.076   8.963   6.221
   838G11  C03P57132   4.053   8.843   6.298
   838G11  C04757133   4.047   8.977   6.086
   838G11  C04657134   4.009   8.873   6.006
   838G11  C04557135   3.997   8.735   6.026
   838G11  C03T57136   4.021   8.655   6.136
   838G11  C04457137   4.012   8.519   6.095
   838G11  C04357138   3.961   8.516   5.964
   838G11  C04257139   4.005   8.396   5.899
   838G11  C04157140   4.036   8.310   6.016
   838G11  C04057141   4.060   8.175   6.003
   838G11  C03Z57142   4.094   8.088   6.111
   838G11  C04H57143   4.127   7.964   6.047
   838G11  C04G57144   4.119   7.981   5.910
   838G11  C03N57145   4.106   8.090   6.255
   838G11  C03Y57146   4.132   7.965   6.314
   838G11  C03X57147   4.158   7.845   6.237
   838G11  C04F57148   4.082   8.107   5.876
   838G11  C04E57149   4.088   8.148   5.740
   838G11  C04O57150   4.121   8.049   5.646
   838G11  C04D57151   4.053   8.274   5.686
   838G11  C04V57152   4.053   8.300   5.545
   838G11  C04W57153   4.093   8.202   5.452
   838G11  C04C57154   4.019   8.390   5.754
   838G11  C04L57155   3.995   8.485   5.644
   838G11  C04U57156   3.965   8.624   5.667
   838G11  C05Q57157   3.956   8.725   5.571
   838G11  C05P57158   3.969   8.849   5.633
   838G11  C04T57159   3.981   8.836   5.767
   838G11  C04B57160   3.965   8.697   5.791
   838G11  C03M57161   4.035   8.384   6.148
   838G11  C04A57162   3.977   8.647   5.921
   838G11  C05H57163   4.004   8.921   5.874
   838G11  C05G57164   4.039   9.062   5.873
   838G11  C05F57165   4.021   9.148   5.769
   838G11  C05E57166   4.082   9.277   5.760
   838G11  C05L57167   4.148   9.373   5.851
   838G11  C05K57168   4.166   9.344   5.990
   838G11  C05J57169   4.131   9.226   6.065
   838G11  C06657170   4.228   9.447   6.062
   838G11  C06557171   4.279   9.563   5.996
   838G11  C06457172   4.271   9.575   5.855
   838G11  C06N57173   4.349   9.666   6.074
   838G11  C06957174   4.370   9.652   6.211
   838G11  C06P57175   4.442   9.745   6.282
   838G11  C06R57176   4.477   9.721   6.413
   838G11  C06B57177   4.420   9.614   6.477
   838G11  C06S57178   4.455   9.591   6.612
   838G11  C02G57179   4.400   9.486   6.682
   838G11  C02F57180   4.450   9.457   6.811
   838G11  C02757181   4.542   9.542   6.869
   838G11  C02657182   4.590   9.506   6.996
   838G11  C00E57183   4.682   9.590   7.058
   838G11  C00D57184   4.731   9.555   7.183
   838G11  C00C57185   4.831   9.636   7.229
   838G11  C00B57186   4.882   9.746   7.172
   838G11  C01557187   4.824   9.787   7.053
   838G11  C07F57188   4.877   9.894   6.985
   838G11  C07E57189   4.826   9.920   6.859
   838G11  C06W57190   4.729   9.846   6.803
   838G11  C06V57191   4.677   9.737   6.869
   838G11  C06X57192   4.690   9.877   6.676
   838G11  C07B57193   4.737   9.987   6.608
   838G11  C07C57194   4.836  10.062   6.665
   838G11  C0FU57195   4.884  10.169   6.594
   838G11  C0F757196   4.989  10.241   6.645
   838G11  C0F657197   5.042  10.349   6.576
   838G11  C0F857198   5.139  10.426   6.630
   838G11  C0F957199   5.198  10.532   6.560
   838G11  C0FA57200   5.288  10.610   6.626
   838G11  C0FZ57201   5.336  10.579   6.754
   838G11  C0G057202   5.427  10.667   6.822
   838G11  C0GD57203   5.470  10.784   6.771
   838G11  C0FC57204   5.430  10.815   6.643
   838G11  C0GH57205   5.474  10.934   6.583
   838G11  C0EY57206   5.430  10.962   6.452
   838G11  C0EX57207   5.472  11.084   6.389
   838G11  C0EW57208   5.434  11.109   6.256
   838G11  C0FR57209   5.476  11.225   6.193
   838G11  H01D57210   5.450  11.263   6.095
   838G11  C0FS57211   5.568  11.309   6.252
   838G11  H01C57212   5.604  11.396   6.198
   838G11  C0GJ57213   5.594  11.294   6.385
   838G11  H01N57214   5.663  11.360   6.434
   838G11  C0EV57215   5.360  11.009   6.192
   838G11  C0FT57216   5.329  11.033   6.061
   838G11  H01E57217   5.370  11.115   6.003
   838G11  C0EU57218   5.317  10.893   6.253
   838G11  C0ET57219   5.238  10.798   6.187
   838G11  C0EI57220   5.172  10.689   6.241
   838G11  C0F157221   5.205  10.672   6.372
   838G11  C0F057222   5.298  10.758   6.445
   838G11  C0EH57223   5.077  10.615   6.166
   838G11  C0EG57224   5.042  10.644   6.032
   838G11  C0EJ57225   5.011  10.517   6.242
   838G11  C0F357226   5.056  10.484   6.373
   838G11  C0EK57227   4.911  10.438   6.181
   838G11  C0EL57228   4.874  10.463   6.044
   838G11  C0EM57229   4.764  10.371   6.010
   838G11  C0EN57230   4.694  10.292   6.103
   838G11  C07I57231   4.613  10.197   6.041
   838G11  C07457232   4.556  10.088   6.098
   838G11  C07357233   4.495   9.996   6.019
   838G11  C07257234   4.466   9.875   6.085
   838G11  C07557235   4.596  10.069   6.231
   838G11  C07657236   4.684  10.158   6.296
   838G11  C07857237   4.728  10.133   6.420
   838G11  C07G57238   4.558   9.952   6.293
   838G11  C07057239   4.601   9.931   6.420
   838G11  C07Z57240   4.613  10.222   5.900
   838G11  C07757241   4.747  10.259   6.225
   838G11  C0EO57242   4.858  10.339   6.265
   838G11  C0F457243   4.900  10.306   6.393
   838G11  C0EQ57244   5.207  10.827   6.057
   838G11  C0FQ57245   5.543  11.180   6.457
   838G11  C0GI57246   5.570  11.157   6.593
   838G11  H01L57247   5.621  11.236   6.645
   838G11  C0EZ57248   5.351  10.871   6.387
   838G11  C0GG57249   5.543  11.035   6.656
   838G11  C0GF57250   5.587  11.000   6.780
   838G11  H01M57251   5.655  11.066   6.832
   838G11  C0GE57252   5.557  10.877   6.834
   838G11  H01K57253   5.603  10.839   6.924
   838G11  O00J57254   5.461  10.647   6.953
   838G11  C0GA57255   5.408  10.533   7.012
   838G11  C0G957256   5.451  10.521   7.147
   838G11  H01H57257   5.524  10.591   7.183
   838G11  C0G857258   5.417  10.402   7.215
   838G11  C0G757259   5.459  10.363   7.348
   838G11  H01I57260   5.505  10.441   7.406
   838G11  O00I57261   5.433  10.245   7.404
   838G11  C0G657262   5.327  10.181   7.352
   838G11  H01J57263   5.284  10.104   7.415
   838G11  C02D57264   5.286  10.196   7.216
   838G11  C02C57265   5.197  10.108   7.151
   838G11  C01757266   5.159   9.983   7.210
   838G11  C01657267   5.047   9.914   7.157
   838G11  O00157268   5.226   9.926   7.313
   838G11  C01857269   5.174   9.822   7.390
   838G11  C00957270   5.061   9.757   7.344
   838G11  C00857271   4.999   9.644   7.404
   838G11  C00757272   5.021   9.556   7.516
   838G11  C00657273   5.122   9.578   7.608
   838G11  C00557274   5.152   9.490   7.722
   838G11  C00457275   5.084   9.364   7.763
   838G11  C00357276   4.975   9.283   7.706
   838G11  C00257277   4.942   9.156   7.759
   838G11  C00P57278   4.846   9.067   7.702
   838G11  C00O57279   4.816   8.937   7.747
   838G11  C00N57280   4.730   8.850   7.685
   838G11  C01057281   4.720   8.716   7.721
   838G11  C01157282   4.654   8.623   7.639
   838G11  C01Q57283   4.659   8.488   7.666
   838G11  C01U57284   4.718   8.449   7.787
   838G11  C01257285   4.776   8.544   7.881
   838G11  H00057286   4.834   8.512   7.966
   838G11  C01V57287   4.711   8.304   7.813
   838G11  H00757288   4.733   8.266   7.911
   838G11  O00557289   4.680   8.211   7.712
   838G11  C01W57290   4.622   8.261   7.600
   838G11  C03157291   4.578   8.168   7.501
   838G11  C03257292   4.555   8.217   7.369
   838G11  H00A57293   4.546   8.154   7.281
   838G11  C03357294   4.546   8.356   7.343
   838G11  H00B57295   4.518   8.392   7.246
   838G11  C01O57296   4.556   8.443   7.453
   838G11  C01N57297   4.526   8.578   7.431
   838G11  C01M57298   4.437   8.627   7.322
   838G11  C01L57299   4.344   8.592   7.206
   838G11  C01K57300   4.302   8.717   7.153
   838G11  C01Y57301   4.243   8.741   7.022
   838G11  C02I57302   4.205   8.631   6.948
   838G11  C02N57303   4.156   8.659   6.818
   838G11  C02M57304   4.121   8.545   6.740
   838G11  C02L57305   4.126   8.410   6.788
   838G11  C02K57306   4.162   8.388   6.925
   838G11  C02U57307   4.165   8.254   6.977
   838G11  C02V57308   4.129   8.149   6.895
   838G11  C03H57309   4.120   8.021   6.946
   838G11  H00C57310   4.108   7.997   7.051
   838G11  C02W57311   4.204   8.234   7.108
   838G11  C02X57312   4.254   8.344   7.178
   838G11  C02Y57313   4.265   8.298   7.313
   838G11  H00857314   4.288   8.351   7.404
   838G11  C02Z57315   4.248   8.152   7.309
   838G11  O00457316   4.268   8.063   7.395
   838G11  O00357317   4.210   8.127   7.183
   838G11  C02J57318   4.216   8.500   7.004
   838G11  C01Z57319   4.249   8.871   6.979
   838G11  C02057320   4.317   8.971   7.050
   838G11  C01I57321   4.370   8.951   7.172
   838G11  C01H57322   4.462   9.030   7.235
   838G11  C00K57323   4.524   8.990   7.354
   838G11  C01S57324   4.516   8.861   7.398
   838G11  C01457325   4.586   8.808   7.503
   838G11  C00J57326   4.613   9.069   7.417
   838G11  C00I57327   4.645   9.189   7.359
   838G11  C00H57328   4.575   9.233   7.242
   838G11  C00G57329   4.608   9.355   7.181
   838G11  C00S57330   4.731   9.276   7.422
   838G11  C00T57331   4.747   9.397   7.360
   838G11  C00U57332   4.835   9.482   7.422
   838G11  C00R57333   4.803   9.239   7.537
   838G11  C00L57334   4.683   9.032   7.535
   838G11  C02857335   4.483   9.154   7.182
   838G11  C02357336   4.429   9.187   7.063
   838G11  C02457337   4.458   9.310   7.004
   838G11  C02157338   4.343   9.099   7.000
   838G11  C02257339   4.287   9.132   6.878
   838G11  C02H57340   4.315   9.254   6.818
   838G11  C03057341   4.278   9.284   6.687
   838G11  C03457342   4.197   9.193   6.620
   838G11  C02P57343   4.211   9.037   6.810
   838G11  C02B57344   4.196   8.904   6.857
   838G11  C01J57345   4.353   8.822   7.223
   838G11  C01X57346   4.278   8.479   7.140
   838G11  C01T57347   4.441   8.771   7.319
   838G11  H00957348   4.586   8.063   7.525
   838G11  C01P57349   4.608   8.399   7.572
   838G11  C01R57350   4.585   8.670   7.526
   838G11  C00Z57351   4.785   8.674   7.838
   838G11  O00057352   4.865   8.761   7.910
   838G11  C00M57353   4.664   8.897   7.574
   838G11  C00Y57354   4.885   8.891   7.860
   838G11  C01357355   4.976   8.980   7.927
   838G11  H00157356   5.020   8.943   8.019
   838G11  C00Q57357   4.778   9.116   7.594
   838G11  C00157358   5.004   9.109   7.877
   838G11  C00057359   5.099   9.193   7.938
   838G11  H00657360   5.147   9.164   8.030
   838G11  C00W57361   4.900   9.321   7.596
   838G11  C01G57362   5.142   9.313   7.878
   838G11  H00557363   5.207   9.367   7.945
   838G11  C01C57364   5.264   9.553   7.793
   838G11  H00257365   5.320   9.512   7.876
   838G11  C01B57366   5.304   9.670   7.720
   838G11  C01D57367   5.408   9.763   7.742
   838G11  H00357368   5.469   9.752   7.830
   838G11  C01E57369   5.430   9.863   7.657
   838G11  H00457370   5.513   9.927   7.680
   838G11  O00257371   5.345   9.882   7.546
   838G11  C01A57372   5.218   9.687   7.608
   838G11  C00V57373   4.921   9.450   7.529
   838G11  C01957374   5.251   9.789   7.510
   838G11  C02E57375   5.142  10.140   7.027
   838G11  C0FX57376   5.186  10.250   6.962
   838G11  C0FW57377   5.136  10.278   6.830
   838G11  C0GB57378   5.284  10.330   7.016
   838G11  C0G357379   5.041  10.064   6.970
   838G11  C07H57380   4.994  10.094   6.842
   838G11  C0GC57381   5.332  10.311   7.146
   838G11  C0G257382   5.322  10.442   6.949
   838G11  C0G157383   5.280  10.471   6.819
   838G11  C0FB57384   5.342  10.726   6.573
   838G11  C0F257385   5.155  10.562   6.433
   838G11  C0FY57386   5.187  10.389   6.757
   838G11  C0F557387   5.002  10.376   6.448
   838G11  C0FV57388   5.037  10.203   6.769
   838G11  C07957389   4.833  10.207   6.467
   838G11  C07A57390   4.685  10.017   6.481
   838G11  C06Y57391   4.595   9.796   6.612
   838G11  C07D57392   4.887  10.024   6.787
   838G11  C01F57393   4.988   9.961   7.039
   838G11  C00A57394   4.998   9.805   7.226
   838G11  C00X57395   4.885   9.594   7.348
   838G11  C00F57396   4.695   9.438   7.245
   838G11  C02957397   4.724   9.707   6.996
   838G11  C02557398   4.551   9.389   7.061
   838G11  C06U57399   4.582   9.655   6.805
   838G11  C02A57400   4.410   9.340   6.877
   838G11  C05Y57401   4.321   9.393   6.613
   838G11  C05Z57402   4.293   9.409   6.480
   838G11  C06057403   4.222   9.313   6.412
   838G11  C06257404   4.204   9.320   6.271
   838G11  C06T57405   4.544   9.681   6.675
   838G11  C06A57406   4.342   9.521   6.413
   838G11  C06Z57407   4.559   9.815   6.481
   838G11  C06Q57408   4.488   9.857   6.222
   838G11  C06857409   4.314   9.538   6.276
   838G11  C06757410   4.243   9.439   6.205
   838G11  C06357411   4.210   9.479   5.780
   838G11  C06C57412   4.213   9.492   5.640
   838G11  C06D57413   4.159   9.398   5.555
   838G11  C06E57414   4.168   9.393   5.419
   838G11  C07Q57415   4.228   9.496   5.359
   838G11  C07P57416   4.267   9.608   5.438
   838G11  C07T57417   4.321   9.717   5.376
   838G11  C07U57418   4.366   9.823   5.451
   838G11  C07V57419   4.423   9.929   5.387
   838G11  C08457420   4.424   9.933   5.246
   838G11  C08C57421   4.376   9.826   5.174
   838G11  C08B57422   4.372   9.838   5.041
   838G11  C08A57423   4.334   9.725   4.967
   838G11  C08957424   4.288   9.608   5.025
   838G11  C08857425   4.270   9.491   4.945
   838G11  C08757426   4.240   9.374   5.008
   838G11  C08657427   4.216   9.375   5.145
   838G11  C08X57428   4.284   9.502   4.805
   838G11  C08T57429   4.288   9.635   4.746
   838G11  C08D57430   4.289   9.603   5.160
   838G11  C08U57431   4.315   9.736   4.831
   838G11  C08V57432   4.351   9.854   4.771
   838G11  C0CY57433   4.403   9.960   4.839
   838G11  C0CX57434   4.458  10.065   4.765
   838G11  C0CW57435   4.528  10.159   4.838
   838G11  C0CV57436   4.535  10.158   4.972
   838G11  C0D457437   4.472  10.052   5.041
   838G11  C0CU57438   4.603  10.253   5.042
   838G11  C0CT57439   4.676  10.350   4.974
   838G11  C0CS57440   4.664  10.355   4.835
   838G11  C0D657441   4.597  10.241   5.173
   838G11  C0EC57442   4.537  10.141   5.247
   838G11  C07X57443   4.538  10.135   5.389
   838G11  C0DL57444   4.669  10.331   5.243
   838G11  C0DK57445   4.673  10.324   5.382
   838G11  C0DN57446   4.748  10.429   5.416
   838G11  C0D857447   4.754  10.428   5.184
   838G11  C08W57448   4.339   9.844   4.636
   838G11  C0CQ57449   4.390   9.959   4.562
   838G11  C09357450   4.413   9.951   4.974
   838G11  C09257451   4.475  10.046   5.178
   838G11  C08557452   4.330   9.716   5.236
   838G11  C07S57453   4.245   9.487   5.223
   838G11  C06F57454   4.133   9.279   5.345
   838G11  C07O57455   4.271   9.603   5.577
   838G11  C07N57456   4.323   9.703   5.654
   838G11  C05D57457   4.088   9.301   5.618
   838G11  C05C57458   4.039   9.194   5.546
   838G11  C05N57459   4.008   9.095   5.635
   838G11  C05M57460   4.073   9.098   6.011
   838G11  C05I57461   4.151   9.211   6.204
   838G11  C06157462   4.173   9.207   6.485
   838G11  C02Q57463   4.165   9.074   6.686
   838G11  C02O57464   4.144   8.796   6.781
   838G11  C03Q57465   4.053   8.873   6.431
   838G11  C03O57466   4.049   8.703   6.264
   838G11  C03L57467   4.066   8.344   6.284
   838G11  C02S57468   4.089   8.547   6.598
   838G11  C02T57469   4.113   8.290   6.707
   838G11  C03K57470   4.088   8.209   6.335
   838G11  C03I57471   4.126   8.168   6.757
   838G11  C03G57472   4.129   7.905   6.866
   838G11  H00D57473   4.135   7.802   6.898
   838G11  C03J57474   4.135   7.956   6.453
   838G11  C03W57475   4.176   7.719   6.303
   838G11  C04I57476   4.160   7.839   6.102
   838G11  C04K57477   4.152   7.877   5.827
   838G11  C04N57478   4.150   7.912   5.694
   838G11  C04X57479   4.123   8.078   5.507
   838G11  C05057480   4.107   8.244   5.323
   838G11  C05W57481   4.025   8.430   5.516
   838G11  C05S57482   4.066   8.668   5.101
   838G11  C05R57483   3.966   8.715   5.438
   838G11  C05O57484   3.987   8.970   5.576
   838G11  C05B57485   4.066   9.181   5.409
   838G11  C05A57486   4.050   8.907   5.166
   838G11  C07R57487   4.160   9.264   5.214
   838G11  C08N57488   4.227   9.257   4.933
   838G11  C08M57489   4.272   9.261   4.798
   838G11  C08L57490   4.280   9.136   4.733
   838G11  C09157491   4.087   8.815   5.061
   838G11  C09K57492   4.060   8.768   4.724
   838G11  H00M57493   3.960   8.742   4.754
   838G11  C08K57494   4.243   9.019   4.797
   838G11  C09J57495   4.106   8.797   4.591
   838G11  C09I57496   4.060   8.811   4.458
   838G11  C09L57497   3.943   8.772   4.393
   838G11  H00N57498   3.862   8.730   4.451
   838G11  C09Q57499   3.937   8.795   4.262
   838G11  H00O57500   3.852   8.757   4.207
   838G11  O00B57501   4.023   8.872   4.190
   838G11  C09G57502   4.123   8.940   4.256
   838G11  C09F57503   4.184   9.047   4.185
   838G11  O00A57504   4.153   9.043   4.051
   838G11  C09P57505   4.196   9.152   3.980
   838G11  H00P57506   4.202   9.149   3.872
   838G11  C09O57507   4.219   9.280   4.041
   838G11  C09D57508   4.289   9.272   4.166
   838G11  C09C57509   4.368   9.375   4.226
   838G11  C09N57510   4.376   9.519   4.204
   838G11  C09T57511   4.269   9.589   4.137
   838G11  C09S57512   4.187   9.535   4.032
   838G11  C0CP57513   4.114   9.646   3.988
   838G11  C0CN57514   4.143   9.762   4.047
   838G11  C0CO57515   4.072   9.880   4.010
   838G11  H01457516   4.083   9.976   4.058
   838G11  C0CZ57517   3.987   9.872   3.900
   838G11  H01557518   3.940   9.963   3.865
   838G11  C0D057519   3.966   9.746   3.835
   838G11  C0G557520   3.883   9.729   3.719
   838G11  H01F57521   3.842   9.821   3.679
   838G11  C0G457522   3.871   9.609   3.660
   838G11  H01G57523   3.825   9.611   3.563
   838G11  O00H57524   3.938   9.495   3.701
   838G11  C0D257525   4.021   9.510   3.811
   838G11  C09V57526   4.090   9.399   3.862
   838G11  H00Q57527   4.077   9.308   3.805
   838G11  C0D157528   4.032   9.629   3.878
   838G11  C09R57529   4.166   9.402   3.979
   838G11  C09H57530   4.157   8.894   4.388
   838G11  C09E57531   4.276   9.143   4.237
   838G11  C09B57532   4.435   9.358   4.346
   838G11  C08Z57533   4.326   9.148   4.598
   838G11  C08O57534   4.308   9.385   4.730
   838G11  C09A57535   4.479   9.479   4.406
   838G11  C08S57536   4.304   9.706   4.619
   838G11  C09957537   4.449   9.585   4.315
   838G11  C09U57538   4.258   9.738   4.134
   838G11  C0BO57539   4.431  10.204   4.150
   838G11  C0CL57540   4.382   9.956   4.417
   838G11  C0D357541   4.439  10.069   4.630
   838G11  C0D557542   4.589  10.263   4.769
   838G11  C0BR57543   4.508  10.300   4.354
   838G11  C0BQ57544   4.493  10.312   4.218
   838G11  C0BL57545   4.457  10.334   3.942
   838G11  C0AF57546   4.538  10.560   3.808
   838G11  C0BH57547   4.636  10.646   4.156
   838G11  C0BG57548   4.730  10.729   4.217
   838G11  C0BD57549   4.745  10.862   4.017
   838G11  C0AG57550   4.582  10.671   3.746
   838G11  C0AI57551   4.657  10.770   3.541
   838G11  C0AV57552   4.840  10.917   3.405
   838G11  C0BB57553   4.823  11.090   3.739
   838G11  O00C57554   5.028  11.074   3.438
   838G11  C0BC57555   4.923  11.176   3.786
   838G11  C0B957556   4.804  10.968   3.945
   838G11  O00E57557   5.038  11.095   4.188
   838G11  C0CA57558   5.091  11.074   4.320
   838G11  O00F57559   5.192  11.136   4.360
   838G11  C0BF57560   4.782  10.838   4.148
   838G11  C0C557561   5.022  10.968   4.391
   838G11  C0C457562   5.060  10.951   4.522
   838G11  H01157563   5.136  11.013   4.568
   838G11  C0C857564   4.763  10.712   4.353
   838G11  C0C257565   4.986  10.854   4.601
   838G11  C0C357566   5.011  10.835   4.740
   838G11  C0DY57567   5.098  10.906   4.818
   838G11  H01657568   5.177  10.975   4.793
   838G11  C0DX57569   5.084  10.848   4.953
   838G11  C0DW57570   5.175  10.881   5.054
   838G11  C0BY57571   4.739  10.583   4.555
   838G11  C0DB57572   4.952  10.738   4.817
   838G11  C0CC57573   4.721  10.464   4.767
   838G11  C0D757574   4.761  10.439   5.044
   838G11  C0DZ57575   4.987  10.741   4.952
   838G11  C0DM57576   4.810  10.492   5.296
   838G11  C0DQ57577   5.066  10.749   5.250
   838G11  C0DV57578   5.164  10.835   5.191
   838G11  C0E057579   5.287  10.977   5.056
   838G11  C0FO57580   5.329  11.195   5.318
   838G11  C0E357581   5.291  11.117   5.002
   838G11  H01757582   5.211  11.155   4.941
   838G11  C0GV57583   5.309  11.325   5.265
   838G11  C0ES57584   5.256  11.157   5.437
   838G11  C0GQ57585   5.173  11.505   5.548
   838G11  C0FJ57586   5.116  11.331   5.869
   838G11  C0ED57587   5.154  11.106   5.699
   838G11  C0ER57588   5.239  10.947   6.001
   838G11  C0EP57589   5.117  10.759   5.980
   838G11  C0E657590   5.116  10.870   5.604
   838G11  C0DE57591   4.915  10.640   5.579
   838G11  C0EA57592   4.941  10.570   5.967
   838G11  C0DF57593   4.814  10.556   5.622
   838G11  C08057594   4.701  10.335   5.889
   838G11  C0DO57595   4.755  10.448   5.554
   838G11  C0DJ57596   4.601  10.233   5.461
   838G11  C07K57597   4.544  10.126   5.813
   838G11  C07W57598   4.479  10.031   5.458
   838G11  C08357599   4.367   9.818   5.589
   838G11  C07J57600   4.491  10.009   5.880
   838G11  C06O57601   4.406   9.777   6.010
   838G11  C06M57602   4.324   9.690   5.792
   848G11  C07157603   9.292   6.771  11.667
   848G11  C07L57604   9.268   6.817  11.796
   848G11  C07M57605   9.316   6.942  11.831
   848G11  C07Y57606   9.295   6.996  11.958
   848G11  C08157607   9.236   6.918  12.064
   848G11  C08257608   9.221   6.980  12.192
   848G11  C0DI57609   9.189   6.911  12.317
   848G11  C0DH57610   9.143   6.781  12.357
   848G11  C0DG57611   9.150   6.758  12.502
   848G11  C0E957612   9.063   6.687  12.598
   848G11  C0E857613   9.068   6.779  12.721
   848G11  C0E757614   8.998   6.766  12.852
   848G11  C0EB57615   8.925   6.639  12.870
   848G11  C0EF57616   8.843   6.612  12.984
   848G11  C0EE57617   8.762   6.681  13.077
   848G11  C0FD57618   8.637   6.631  13.108
   848G11  C0FE57619   8.562   6.541  13.030
   848G11  H01B57620   8.599   6.511  12.934
   848G11  C0FF57621   8.440   6.489  13.064
   848G11  H01A57622   8.397   6.416  12.998
   848G11  C0FG57623   8.391   6.521  13.190
   848G11  H01857624   8.293   6.485  13.216
   848G11  C0FH57625   8.452   6.627  13.273
   848G11  C0FI57626   8.392   6.682  13.395
   848G11  H01957627   8.303   6.636  13.435
   848G11  O00K57628   8.446   6.780  13.463
   848G11  C0FL57629   8.561   6.832  13.408
   848G11  C0FK57630   8.638   6.783  13.295
   848G11  C0FM57631   8.761   6.841  13.263
   848G11  C0FN57632   8.812   6.942  13.339
   848G11  C0FP57633   8.731   6.997  13.435
   848G11  C0GO57634   8.767   7.111  13.503
   848G11  C0GN57635   8.688   7.198  13.581
   848G11  C0GR57636   8.558   7.139  13.611
   848G11  C0GS57637   8.464   7.212  13.689
   848G11  H01Q57638   8.373   7.169  13.727
   848G11  C0GT57639   8.502   7.340  13.730
   848G11  H01O57640   8.430   7.403  13.779
   848G11  C0GU57641   8.634   7.388  13.713
   848G11  H01P57642   8.652   7.484  13.759
   848G11  O00L57643   8.525   7.013  13.561
   848G11  C0GM57644   8.731   7.315  13.639
   848G11  C0GL57645   8.862   7.356  13.602
   848G11  H01R57646   8.892   7.452  13.639
   848G11  C0GK57647   8.948   7.273  13.527
   848G11  C0GP57648   9.070   7.290  13.451
   848G11  C0E257649   9.114   7.158  13.411
   848G11  C0E157650   9.197   7.176  13.293
   848G11  C0DU57651   9.177   7.120  13.163
   848G11  C0DT57652   9.098   7.015  13.116
   848G11  C0E457653   9.000   6.949  13.188
   848G11  C0E557654   8.944   6.853  13.104
   848G11  C0DS57655   9.088   6.968  12.983
   848G11  C0DR57656   9.160   7.051  12.896
   848G11  C0DD57657   9.171   7.031  12.759
   848G11  C0DC57658   9.241   7.151  12.702
   848G11  C0DP57659   9.273   7.247  12.806
   848G11  C0DA57660   9.332   7.381  12.799
   848G11  C0D957661   9.408   7.458  12.691
   848G11  C0CR57662   9.473   7.582  12.712
   848G11  C0C057663   9.471   7.643  12.834
   848G11  C0BZ57664   9.540   7.758  12.874
   848G11  C0C157665   9.526   7.813  12.999
   848G11  C0C757666   9.596   7.925  13.036
   848G11  C0C657667   9.586   7.984  13.166
   848G11  C0C957668   9.674   8.084  13.206
   848G11  C0B857669   9.662   8.139  13.338
   848G11  C0B757670   9.747   8.238  13.378
   848G11  C0B657671   9.743   8.317  13.502
   848G11  C0B557672   9.623   8.363  13.566
   848G11  H00Z57673   9.524   8.320  13.561
   848G11  C0B457674   9.659   8.486  13.630
   848G11  H01057675   9.600   8.549  13.694
   848G11  C0B357676   9.798   8.516  13.601
   848G11  C0AP57677   9.888   8.628  13.555
   848G11  C0AQ57678   9.976   8.568  13.465
   848G11  C0AR57679  10.030   8.643  13.358
   848G11  C0AS57680  10.058   8.572  13.251
   848G11  C0AT57681  10.017   8.439  13.228
   848G11  C0BA57682   9.940   8.376  13.318
   848G11  C0AU57683  10.022   8.387  13.097
   848G11  C0BE57684   9.944   8.280  13.064
   848G11  C0BI57685   9.945   8.235  12.930
   848G11  C0BJ57686  10.018   8.309  12.832
   848G11  C0BK57687  10.010   8.272  12.699
   848G11  C0BW57688   9.937   8.160  12.662
   848G11  C0BV57689   9.858   8.096  12.757
   848G11  C0BU57690   9.777   7.993  12.719
   848G11  C0BX57691   9.701   7.928  12.815
   848G11  C0BT57692   9.771   7.955  12.586
   848G11  C0CD57693   9.697   7.839  12.554
   848G11  C0CB57694   9.614   7.772  12.646
   848G11  C0CE57695   9.690   7.797  12.422
   848G11  C0CK57696   9.756   7.871  12.321
   848G11  C0BS57697   9.835   7.986  12.349
   848G11  C0CJ57698   9.902   8.059  12.252
   848G11  C0BP57699   9.978   8.172  12.290
   848G11  C0CI57700  10.044   8.254  12.196
   848G11  C0CH57701  10.140   8.344  12.249
   848G11  H01257702  10.196   8.403  12.179
   848G11  C0BN57703  10.156   8.372  12.385
   848G11  C0CG57704  10.241   8.476  12.426
   848G11  C0CF57705  10.335   8.540  12.342
   848G11  H01357706  10.366   8.493  12.250
   848G11  O00G57707  10.397   8.657  12.371
   848G11  C0AA57708  10.365   8.714  12.491
   848G11  C0A957709  10.432   8.838  12.523
   848G11  H00U57710  10.498   8.885  12.451
   848G11  C0A857711  10.406   8.906  12.640
   848G11  H00V57712  10.454   9.000  12.663
   848G11  C0A757713  10.312   8.855  12.735
   848G11  C0A657714  10.263   8.716  12.712
   848G11  C0A557715  10.194   8.634  12.803
   848G11  C0A457716  10.182   8.677  12.943
   848G11  C0A357717  10.202   8.798  13.025
   848G11  C0A257718  10.220   8.927  12.966
   848G11  C0A157719  10.197   9.051  13.040
   848G11  C0A057720  10.144   9.092  13.172
   848G11  C09Z57721  10.147   9.236  13.189
   848G11  C09Y57722  10.087   9.283  13.306
   848G11  H00Y57723  10.078   9.391  13.317
   848G11  C09X57724  10.028   9.199  13.400
   848G11  C09W57725   9.956   9.264  13.503
   848G11  H00R57726   9.945   9.371  13.509
   848G11  C0AX57727   9.879   9.185  13.586
   848G11  H00S57728   9.821   9.234  13.663
   848G11  C0AW57729   9.880   9.046  13.579
   848G11  H00T57730   9.824   8.990  13.653
   848G11  C0AN57731   9.955   8.977  13.482
   848G11  C0AO57732   9.956   8.843  13.466
   848G11  C0AM57733  10.026   9.062  13.387
   848G11  C0B257734  10.205   9.340  13.106
   848G11  O00D57735  10.202   9.461  13.126
   848G11  C0B157736  10.268   9.284  12.988
   848G11  H00W57737  10.308   9.358  12.920
   848G11  C0AL57738  10.099   9.003  13.275
   848G11  C0AK57739  10.100   8.862  13.272
   848G11  C0B057740  10.255   9.148  12.955
   848G11  C0AZ57741  10.307   9.092  12.833
   848G11  H00X57742  10.344   9.141  12.745
   848G11  C0AJ57743  10.138   8.778  13.151
   848G11  C0AH57744  10.132   8.581  13.028
   848G11  C0AE57745  10.146   8.502  12.775
   848G11  C0AD57746  10.151   8.458  12.645
   848G11  C0AY57747  10.279   8.949  12.841
   848G11  C0AB57748  10.287   8.651  12.590
   848G11  C0AC57749  10.224   8.533  12.554
   848G11  C0BM57750  10.080   8.304  12.471
   848G11  C0CM57751  10.017   8.236  12.057
   848G11  C09M57752   9.969   8.102  12.019
   848G11  C09857753  10.031   8.047  11.905
   848G11  C08R57754  10.003   7.934  11.818
   848G11  C08Q57755  10.093   7.908  11.718
   848G11  C08P57756  10.092   7.837  11.591
   848G11  C08Y57757  10.183   7.895  11.497
   848G11  C09757758  10.235   8.023  11.509
   848G11  C09657759  10.240   8.095  11.394
   848G11  C09057760  10.237   7.988  11.301
   848G11  C09557761  10.277   7.999  11.170
   848G11  C09457762  10.281   7.889  11.078
   848G11  C08J57763  10.235   7.752  11.099
   848G11  C08I57764  10.200   7.705  10.971
   848G11  C08H57765  10.103   7.593  10.987
   848G11  C08G57766  10.051   7.604  11.128
   848G11  C08F57767   9.960   7.538  11.222
   848G11  C08E57768   9.879   7.430  11.174
   848G11  C05957769   9.869   7.384  11.040
   848G11  C05857770   9.778   7.280  11.004
   848G11  C05757771   9.777   7.207  10.886
   848G11  C05657772   9.860   7.261  10.783
   848G11  C05557773   9.927   7.382  10.793
   848G11  C05457774  10.034   7.373  10.696
   848G11  C05357775  10.027   7.245  10.629
   848G11  C05257776  10.124   7.189  10.543
   848G11  C05157777  10.251   7.252  10.510
   848G11  C05U57778  10.310   7.361  10.584
   848G11  C05T57779  10.271   7.440  10.695
   848G11  C06K57780  10.373   7.541  10.717
   848G11  H00J57781  10.370   7.601  10.806
   848G11  C06L57782  10.468   7.520  10.613
   848G11  H00I57783  10.551   7.588  10.604
   848G11  C05V57784  10.434   7.411  10.537
   848G11  C06J57785  10.509   7.364  10.431
   848G11  H00K57786  10.602   7.409  10.401
   848G11  C05X57787  10.464   7.247  10.368
   848G11  C06I57788  10.539   7.185  10.261
   848G11  H00L57789  10.635   7.222  10.230
   848G11  C04Z57790  10.504   7.064  10.204
   848G11  C06H57791  10.580   7.001  10.101
   848G11  H00H57792  10.673   7.048  10.069
   848G11  C04Y57793  10.542   6.869  10.052
   848G11  C06G57794  10.627   6.807   9.958
   848G11  O00957795  10.731   6.851   9.907
   848G11  O00857796  10.596   6.673   9.919
   848G11  C04P57797  10.495   6.605   9.978
   848G11  C04J57798  10.449   6.472   9.940
   848G11  C04Q57799  10.501   6.384   9.842
   848G11  H00E57800  10.598   6.413   9.802
   848G11  C04M57801  10.463   6.251   9.824
   848G11  C04R57802  10.529   6.162   9.738
   848G11  H00F57803  10.611   6.200   9.678
   848G11  C04S57804  10.490   6.037   9.724
   848G11  H00G57805  10.544   5.975   9.654
   848G11  O00757806  10.389   5.978   9.797
   848G11  C03V57807  10.323   6.064   9.890
   848G11  C03U57808  10.207   6.016   9.958
   848G11  O00657809  10.163   5.886   9.925
   848G11  C03F57810  10.071   5.830  10.003
   848G11  C03E57811  10.004   5.906  10.106
   848G11  C03D57812  10.032   6.045  10.117
   848G11  C03C57813   9.964   6.122  10.212
   848G11  C03B57814   9.863   6.049  10.282
   848G11  C03A57815   9.784   6.128  10.370
   848G11  C03957816   9.805   6.266  10.390
   848G11  C03857817   9.700   6.296  10.499
   848G11  C03757818   9.624   6.175  10.507
   848G11  C03657819   9.515   6.168  10.588
   848G11  C02R57820   9.447   6.061  10.634
   848G11  C03557821   9.369   6.112  10.742
   848G11  C03R57822   9.390   6.245  10.759
   848G11  C03S57823   9.378   6.305  10.885
   848G11  C04957824   9.449   6.420  10.906
   848G11  C04857825   9.532   6.460  10.802
   848G11  C03P57826   9.575   6.388  10.687
   848G11  C04757827   9.564   6.595  10.816
   848G11  C04657828   9.641   6.674  10.729
   848G11  C04557829   9.712   6.639  10.619
   848G11  C03T57830   9.740   6.521  10.552
   848G11  C04457831   9.834   6.547  10.446
   848G11  C04357832   9.842   6.689  10.433
   848G11  C04257833   9.968   6.723  10.382
   848G11  C04157834  10.009   6.590  10.325
   848G11  C04057835  10.127   6.569  10.250
   848G11  C03Z57836  10.156   6.449  10.172
   848G11  C04H57837  10.267   6.491  10.097
   848G11  C04G57838  10.298   6.625  10.121
   848G11  C03N57839  10.107   6.313  10.156
   848G11  C03Y57840  10.178   6.235  10.063
   848G11  C03X57841  10.294   6.286   9.994
   848G11  C04F57842  10.215   6.677  10.212
   848G11  C04E57843  10.236   6.812  10.258
   848G11  C04O57844  10.356   6.875  10.207
   848G11  C04D57845  10.152   6.888  10.340
   848G11  C04V57846  10.189   7.011  10.389
   848G11  C04W57847  10.313   7.071  10.351
   848G11  C04C57848  10.030   6.851  10.397
   848G11  C04L57849   9.993   6.960  10.484
   848G11  C04U57850   9.866   6.972  10.547
   848G11  C05Q57851   9.843   7.071  10.646
   848G11  C05P57852   9.750   7.022  10.743
   848G11  C04T57853   9.719   6.896  10.711
   848G11  C04B57854   9.791   6.866  10.596
   848G11  C03M57855   9.923   6.478  10.357
   848G11  C04A57856   9.784   6.738  10.550
   848G11  C05H57857   9.647   6.800  10.781
   848G11  C05G57858   9.576   6.806  10.904
   848G11  C05F57859   9.554   6.924  10.982
   848G11  C05E57860   9.509   6.917  11.117
   848G11  C05L57861   9.455   6.818  11.213
   848G11  C05K57862   9.423   6.682  11.177
   848G11  C05J57863   9.454   6.619  11.050
   848G11  C06657864   9.356   6.607  11.276
   848G11  C06557865   9.331   6.661  11.405
   848G11  C06457866   9.373   6.790  11.437
   848G11  C06N57867   9.260   6.587  11.498
   848G11  C06957868   9.217   6.458  11.475
   848G11  C06P57869   9.146   6.386  11.569
   848G11  C06R57870   9.113   6.252  11.548
   848G11  C06B57871   9.135   6.195  11.419
   848G11  C06S57872   9.109   6.064  11.397
   848G11  C02G57873   9.133   6.004  11.275
   848G11  C02F57874   9.105   5.869  11.256
   848G11  C02757875   9.058   5.787  11.357
   848G11  C02657876   9.062   5.649  11.341
   848G11  C00E57877   9.039   5.566  11.448
   848G11  C00D57878   9.044   5.430  11.430
   848G11  C00C57879   9.030   5.355  11.543
   848G11  C00B57880   9.012   5.402  11.666
   848G11  C01557881   9.003   5.540  11.685
   848G11  C07F57882   8.992   5.595  11.811
   848G11  C07E57883   8.987   5.735  11.823
   848G11  C06W57884   9.003   5.817  11.715
   848G11  C06V57885   9.014   5.759  11.589
   848G11  C06X57886   9.008   5.955  11.738
   848G11  C07B57887   8.994   6.006  11.864
   848G11  C07C57888   8.978   5.926  11.973
   848G11  C0FU57889   8.957   5.981  12.104
   848G11  C0F757890   8.949   5.894  12.208
   848G11  C0F657891   8.932   5.954  12.333
   848G11  C0F857892   8.915   5.872  12.442
   848G11  C0F957893   8.885   5.923  12.562
   848G11  C0FA57894   8.863   5.837  12.670
   848G11  C0FZ57895   8.864   5.698  12.652
   848G11  C0G057896   8.822   5.615  12.753
   848G11  C0GD57897   8.771   5.658  12.873
   848G11  C0FC57898   8.772   5.798  12.896
   848G11  C0GH57899   8.727   5.846  13.020
   848G11  C0EY57900   8.734   5.983  13.039
   848G11  C0EX57901   8.707   6.039  13.170
   848G11  C0EW57902   8.723   6.176  13.191
   848G11  C0FR57903   8.678   6.232  13.314
   848G11  H01D57904   8.688   6.336  13.342
   848G11  C0FS57905   8.612   6.156  13.411
   848G11  H01C57906   8.576   6.194  13.506
   848G11  C0GJ57907   8.605   6.018  13.385
   848G11  H01N57908   8.568   5.945  13.455
   848G11  C0EV57909   8.780   6.254  13.088
   848G11  C0FT57910   8.805   6.390  13.111
   848G11  H01E57911   8.801   6.444  13.204
   848G11  C0EU57912   8.801   6.202  12.964
   848G11  C0ET57913   8.848   6.285  12.858
   848G11  C0EI57914   8.878   6.245  12.729
   848G11  C0F157915   8.859   6.110  12.712
   848G11  C0F057916   8.811   6.021  12.811
   848G11  C0EH57917   8.920   6.341  12.630
   848G11  C0EG57918   8.948   6.478  12.660
   848G11  C0EJ57919   8.934   6.287  12.504
   848G11  C0F357920   8.916   6.149  12.479
   848G11  C0EK57921   8.974   6.369  12.398
   848G11  C0EL57922   9.011   6.503  12.422
   848G11  C0EM57923   9.045   6.569  12.295
   848G11  C0EN57924   9.038   6.508  12.173
   848G11  C07I57925   9.082   6.586  12.070
   848G11  C07457926   9.099   6.539  11.942
   848G11  C07357927   9.163   6.616  11.856
   848G11  C07257928   9.182   6.561  11.727
   848G11  C07557929   9.056   6.412  11.921
   848G11  C07657930   9.014   6.325  12.026
   848G11  C07857931   8.992   6.197  12.006
   848G11  C07G57932   9.070   6.362  11.796
   848G11  C07057933   9.046   6.226  11.774
   848G11  C07Z57934   9.134   6.704  12.121
   848G11  C07757935   9.002   6.378  12.155
   848G11  C0EO57936   8.973   6.306  12.267
   848G11  C0F457937   8.946   6.172  12.243
   848G11  C0EQ57938   8.878   6.415  12.883
   848G11  C0FQ57939   8.649   5.957  13.264
   848G11  C0GI57940   8.636   5.820  13.236
   848G11  H01L57941   8.596   5.751  13.309
   848G11  C0EZ57942   8.786   6.069  12.942
   848G11  C0GG57943   8.684   5.760  13.119
   848G11  C0GF57944   8.686   5.621  13.088
   848G11  H01M57945   8.661   5.549  13.164
   848G11  C0GE57946   8.717   5.571  12.963
   848G11  H01K57947   8.722   5.466  12.941
   848G11  O00J57948   8.833   5.475  12.742
   848G11  C0GA57949   8.882   5.427  12.625
   848G11  C0G957950   8.895   5.287  12.616
   848G11  H01H57951   8.854   5.226  12.696
   848G11  C0G857952   8.932   5.228  12.497
   848G11  C0G757953   8.945   5.086  12.475
   848G11  H01I57954   8.945   5.016  12.556
   848G11  O00I57955   8.985   5.034  12.355
   848G11  C0G657956   8.970   5.114  12.247
   848G11  H01J57957   8.970   5.059  12.155
   848G11  C02D57958   8.965   5.257  12.257
   848G11  C02C57959   8.971   5.342  12.146
   848G11  C01757960   9.007   5.290  12.016
   848G11  C01657961   9.006   5.369  11.903
   848G11  O00157962   9.058   5.163  11.996
   848G11  C01857963   9.080   5.103  11.881
   848G11  C00957964   9.053   5.175  11.765
   848G11  C00857965   9.065   5.128  11.628
   848G11  C00757966   9.120   5.004  11.572
   848G11  C00657967   9.177   4.898  11.648
   848G11  C00557968   9.235   4.785  11.586
   848G11  C00457969   9.270   4.758  11.452
   848G11  C00357970   9.277   4.844  11.334
   848G11  C00257971   9.347   4.797  11.221
   848G11  C00P57972   9.359   4.880  11.104
   848G11  C00O57973   9.436   4.841  10.997
   848G11  C00N57974   9.446   4.918  10.878
   848G11  C01057975   9.515   4.875  10.766
   848G11  C01157976   9.535   4.948  10.647
   848G11  C01Q57977   9.610   4.898  10.542
   848G11  C01U57978   9.656   4.769  10.542
   848G11  C01257979   9.637   4.697  10.661
   848G11  H00057980   9.659   4.592  10.653
   848G11  C01V57981   9.719   4.728  10.418
   848G11  H00757982   9.737   4.624  10.397
   848G11  O00557983   9.748   4.813  10.313
   848G11  C01W57984   9.689   4.931  10.318
   848G11  C03157985   9.715   5.014  10.209
   848G11  C03257986   9.653   5.135  10.204
   848G11  H00A57987   9.663   5.201  10.119
   848G11  C03357988   9.573   5.184  10.311
   848G11  H00B57989   9.521   5.278  10.305
   848G11  C01O57990   9.573   5.112  10.431
   848G11  C01N57991   9.509   5.164  10.542
   848G11  C01M57992   9.463   5.300  10.551
   848G11  C01L57993   9.498   5.434  10.503
   848G11  C01K57994   9.409   5.514  10.565
   848G11  C01Y57995   9.422   5.653  10.581
   848G11  C02I57996   9.522   5.718  10.504
   848G11  C02N57997   9.538   5.857  10.514
   848G11  C02M57998   9.640   5.925  10.439
   848G11  C02L57999   9.727   5.853  10.358
   848G11  C02K58000   9.714   5.712  10.354
   848G11  C02U58001   9.810   5.644  10.277
   848G11  C02V58002   9.891   5.708  10.184
   848G11  C03H58003   9.944   5.638  10.077
   848G11  H00C58004   9.913   5.535  10.062
   848G11  C02W58005   9.830   5.508  10.296
   848G11  C02X58006   9.736   5.448  10.383
   848G11  C02Y58007   9.806   5.332  10.426
   848G11  H00858008   9.783   5.257  10.501
   848G11  C02Z58009   9.925   5.314  10.345
   848G11  O00458010   9.992   5.214  10.327
   848G11  O00358011   9.942   5.429  10.280
   848G11  C02J58012   9.614   5.642  10.426
   848G11  C01Z58013   9.342   5.713  10.678
   848G11  C02058014   9.266   5.641  10.768
   848G11  C01I58015   9.264   5.504  10.760
   848G11  C01H58016   9.233   5.420  10.867
   848G11  C00K58017   9.265   5.289  10.862
   848G11  C01S58018   9.333   5.235  10.754
   848G11  C01458019   9.397   5.113  10.755
   848G11  C00J58020   9.239   5.205  10.968
   848G11  C00I58021   9.173   5.256  11.081
   848G11  C00H58022   9.146   5.394  11.085
   848G11  C00G58023   9.101   5.451  11.200
   848G11  C00S58024   9.165   5.174  11.189
   848G11  C00T58025   9.110   5.237  11.296
   848G11  C00U58026   9.091   5.158  11.411
   848G11  C00R58027   9.226   5.049  11.203
   848G11  C00L58028   9.300   5.079  10.979
   848G11  C02858029   9.176   5.473  10.979
   848G11  C02358030   9.170   5.613  10.989
   848G11  C02458031   9.126   5.675  11.110
   848G11  C02158032   9.218   5.696  10.888
   848G11  C02258033   9.238   5.831  10.907
   848G11  C02H58034   9.186   5.890  11.025
   848G11  C03058035   9.209   6.025  11.054
   848G11  C03458036   9.268   6.100  10.955
   848G11  C02P58037   9.302   5.904  10.812
   848G11  C02B58038   9.361   5.848  10.696
   848G11  C01J58039   9.316   5.445  10.646
   848G11  C01X58040   9.610   5.499  10.432
   848G11  C01T58041   9.360   5.312  10.642
   848G11  H00958042   9.774   4.965  10.133
   848G11  C01P58043   9.621   4.985  10.437
   848G11  C01R58044   9.477   5.076  10.645
   848G11  C00Z58045   9.582   4.750  10.774
   848G11  O00058046   9.580   4.672  10.891
   848G11  C00M58047   9.374   5.036  10.872
   848G11  C00Y58048   9.501   4.716  10.998
   848G11  C01358049   9.481   4.630  11.105
   848G11  H00158050   9.531   4.535  11.094
   848G11  C00Q58051   9.292   4.999  11.097
   848G11  C00158052   9.404   4.674  11.218
   848G11  C00058053   9.380   4.590  11.327
   848G11  H00658054   9.414   4.488  11.315
   848G11  C00W58055   9.213   4.970  11.319
   848G11  C01G58056   9.327   4.631  11.443
   848G11  H00558057   9.311   4.547  11.509
   848G11  C01C58058   9.256   4.688  11.698
   848G11  H00258059   9.278   4.582  11.696
   848G11  C01B58060   9.199   4.746  11.819
   848G11  C01D58061   9.189   4.697  11.947
   848G11  H00358062   9.192   4.593  11.978
   848G11  C01E58063   9.163   4.791  12.039
   848G11  H00458064   9.148   4.749  12.137
   848G11  O00258065   9.134   4.926  12.021
   848G11  C01A58066   9.159   4.880  11.783
   848G11  C00V58067   9.143   5.030  11.431
   848G11  C01958068   9.125   4.970  11.890
   848G11  C02E58069   8.972   5.478  12.157
   848G11  C0FX58070   8.955   5.533  12.288
   848G11  C0FW58071   8.950   5.672  12.300
   848G11  C0GB58072   8.940   5.449  12.395
   848G11  C0G358073   8.980   5.560  12.049
   848G11  C07H58074   8.970   5.702  12.062
   848G11  C0GC58075   8.948   5.310  12.384
   848G11  C0G258076   8.912   5.509  12.520
   848G11  C0G158077   8.905   5.649  12.530
   848G11  C0FB58078   8.816   5.886  12.792
   848G11  C0F258079   8.886   6.062  12.586
   848G11  C0FY58080   8.925   5.731  12.422
   848G11  C0F558081   8.929   6.090  12.352
   848G11  C0FV58082   8.952   5.753  12.190
   848G11  C07958083   8.962   6.115  12.117
   848G11  C07A58084   9.007   6.143  11.878
   848G11  C06Y58085   9.040   6.039  11.627
   848G11  C07D58086   8.977   5.789  11.949
   848G11  C01F58087   8.997   5.507  11.922
   848G11  C00A58088   9.020   5.314  11.777
   848G11  C00X58089   9.042   5.219  11.529
   848G11  C00F58090   9.083   5.374  11.308
   848G11  C02958091   9.024   5.622  11.575
   848G11  C02558092   9.093   5.589  11.216
   848G11  C06U58093   9.038   5.844  11.483
   848G11  C02A58094   9.132   5.813  11.130
   848G11  C05Y58095   9.183   6.083  11.171
   848G11  C05Z58096   9.227   6.215  11.199
   848G11  C06058097   9.295   6.290  11.102
   848G11  C06258098   9.345   6.415  11.128
   848G11  C06T58099   9.062   5.983  11.500
   848G11  C06A58100   9.204   6.271  11.322
   848G11  C06Z58101   9.062   6.170  11.650
   848G11  C06Q58102   9.129   6.439  11.694
   848G11  C06858103   9.247   6.401  11.352
   848G11  C06758104   9.320   6.475  11.252
   848G11  C06358105   9.438   6.868  11.345
   848G11  C06C58106   9.486   6.994  11.384
   848G11  C06D58107   9.544   7.080  11.297
   848G11  C06E58108   9.611   7.201  11.319
   848G11  C07Q58109   9.615   7.233  11.451
   848G11  C07P58110   9.544   7.155  11.545
   848G11  C07T58111   9.525   7.203  11.676
   848G11  C07U58112   9.446   7.131  11.762
   848G11  C07V58113   9.421   7.188  11.888
   848G11  C08458114   9.481   7.312  11.922
   848G11  C08C58115   9.562   7.376  11.831
   848G11  C08B58116   9.623   7.491  11.867
   848G11  C08A58117   9.701   7.559  11.770
   848G11  C08958118   9.727   7.512  11.644
   848G11  C08858119   9.822   7.577  11.566
   848G11  C08758120   9.850   7.526  11.440
   848G11  C08658121   9.783   7.409  11.400
   848G11  C08X58122   9.896   7.689  11.616
   848G11  C08T58123   9.855   7.754  11.738
   848G11  C08D58124   9.667   7.394  11.615
   848G11  C08U58125   9.767   7.679  11.813
   848G11  C08V58126   9.744   7.729  11.939
   848G11  C0CY58127   9.683   7.655  12.036
   848G11  C0CX58128   9.688   7.705  12.162
   848G11  C0CW58129   9.616   7.635  12.258
   848G11  C0CV58130   9.550   7.520  12.230
   848G11  C0D458131   9.555   7.470  12.096
   848G11  C0CU58132   9.479   7.453  12.320
   848G11  C0CT58133   9.475   7.496  12.453
   848G11  C0CS58134   9.543   7.610  12.488
   848G11  C0D658135   9.410   7.337  12.274
   848G11  C0EC58136   9.412   7.287  12.146
   848G11  C07X58137   9.341   7.174  12.113
   848G11  C0DL58138   9.339   7.274  12.373
   848G11  C0DK58139   9.262   7.165  12.339
   848G11  C0DN58140   9.227   7.106  12.452
   848G11  C0D858141   9.343   7.297  12.514
   848G11  C08W58142   9.820   7.846  11.956
   848G11  C0CQ58143   9.825   7.898  12.091
   848G11  C09358144   9.618   7.538  11.999
   848G11  C09258145   9.483   7.355  12.054
   848G11  C08558146   9.580   7.325  11.705
   848G11  C07S58147   9.691   7.344  11.489
   848G11  C06F58148   9.705   7.260  11.233
   848G11  C07O58149   9.479   7.038  11.510
   848G11  C07N58150   9.404   6.966  11.606
   848G11  C05D58151   9.543   7.044  11.162
   848G11  C05C58152   9.614   7.121  11.070
   848G11  C05N58153   9.629   7.039  10.961
   848G11  C05M58154   9.527   6.678  10.935
   848G11  C05I58155   9.420   6.485  11.028
   848G11  C06158156   9.310   6.229  10.981
   848G11  C02Q58157   9.316   6.036  10.845
   848G11  C02O58158   9.444   5.916  10.600
   848G11  C03Q58159   9.493   6.273  10.677
   848G11  C03O58160   9.678   6.407  10.587
   848G11  C03L58161   9.908   6.339  10.321
   848G11  C02S58162   9.672   6.069  10.436
   848G11  C02T58163   9.828   5.914  10.273
   848G11  C03K58164   9.994   6.261  10.232
   848G11  C03I58165   9.907   5.840  10.188
   848G11  C03G58166  10.031   5.696   9.987
   848G11  H00D58167  10.064   5.637   9.903
   848G11  C03J58168  10.139   6.101  10.047
   848G11  C03W58169  10.364   6.201   9.907
   848G11  C04I58170  10.346   6.411  10.016
   848G11  C04K58171  10.409   6.674  10.067
   848G11  C04N58172  10.434   6.803  10.112
   848G11  C04X58173  10.388   7.001  10.259
   848G11  C05058174  10.340   7.192  10.411
   848G11  C05W58175  10.095   7.067  10.478
   848G11  C05S58176  10.145   7.428  10.769
   848G11  C05R58177   9.911   7.188  10.672
   848G11  C05O58178   9.712   7.082  10.860
   848G11  C05B58179   9.695   7.233  11.100
   848G11  C05A58180   9.953   7.416  10.922
   848G11  C07R58181   9.794   7.365  11.269
   848G11  C08N58182   9.949   7.586  11.355
   848G11  C08M58183  10.026   7.691  11.404
   848G11  C08L58184  10.113   7.754  11.317
   848G11  C09158185  10.087   7.474  10.906
   848G11  C09K58186  10.182   7.825  10.885
   848G11  H00M58187  10.119   7.838  10.798
   848G11  C08K58188  10.132   7.701  11.186
   848G11  C09J58189  10.244   7.937  10.951
   848G11  C09I58190  10.251   8.079  10.962
   848G11  C09L58191  10.259   8.184  10.864
   848G11  H00N58192  10.251   8.155  10.760
   848G11  C09Q58193  10.273   8.309  10.904
   848G11  H00O58194  10.287   8.386  10.829
   848G11  O00B58195  10.264   8.349  11.032
   848G11  C09G58196  10.261   8.259  11.139
   848G11  C09F58197  10.249   8.317  11.275
   848G11  O00A58198  10.243   8.453  11.278
   848G11  C09P58199  10.240   8.511  11.403
   848G11  H00P58200  10.267   8.615  11.395
   848G11  C09O58201  10.205   8.447  11.526
   848G11  C09D58202  10.219   8.305  11.526
   848G11  C09C58203  10.206   8.214  11.639
   848G11  C09N58204  10.151   8.231  11.773
   848G11  C09T58205  10.093   8.347  11.824
   848G11  C09S58206  10.125   8.477  11.774
   848G11  C0CP58207  10.092   8.559  11.881
   848G11  C0CN58208  10.049   8.490  12.000
   848G11  C0CO58209  10.020   8.567  12.111
   848G11  H01458210   9.980   8.535  12.206
   848G11  C0CZ58211  10.039   8.706  12.096
   848G11  H01558212   9.996   8.770  12.172
   848G11  C0D058213  10.093   8.772  11.977
   848G11  C0G558214  10.125   8.912  11.966
   848G11  H01F58215  10.112   8.965  12.059
   848G11  C0G458216  10.167   8.960  11.846
   848G11  H01G58217  10.187   9.066  11.848
   848G11  O00H58218  10.190   8.892  11.733
   848G11  C0D258219  10.162   8.757  11.746
   848G11  C09V58220  10.187   8.664  11.640
   848G11  H00Q58221  10.222   8.729  11.561
   848G11  C0D158222  10.119   8.694  11.865
   848G11  C09R58223  10.176   8.522  11.645
   848G11  C09H58224  10.266   8.121  11.094
   848G11  C09E58225  10.243   8.239  11.395
   848G11  C09B58226  10.230   8.080  11.630
   848G11  C08Z58227  10.173   7.872  11.360
   848G11  C08O58228  10.006   7.737  11.539
   848G11  C09A58229  10.191   8.007  11.745
   848G11  C08S58230   9.886   7.864  11.831
   848G11  C09958231  10.144   8.101  11.837
   848G11  C09U58232  10.050   8.352  11.965
   848G11  C0BO58233   9.996   8.198  12.431
   848G11  C0CL58234   9.900   8.017  12.119
   848G11  C0D358235   9.758   7.823  12.189
   848G11  C0D558236   9.613   7.684  12.389
   848G11  C0BR58237   9.840   8.020  12.484
   848G11  C0BQ58238   9.928   8.119  12.525
   848G11  C0BL58239  10.082   8.343  12.604
   848G11  C0AF58240  10.089   8.417  12.865
   848G11  C0BH58241   9.863   8.136  12.890
   848G11  C0BG58242   9.779   8.078  12.986
   848G11  C0BD58243   9.853   8.227  13.158
   848G11  C0AG58244  10.081   8.457  12.994
   848G11  C0AI58245  10.109   8.645  13.148
   848G11  C0AV58246  10.029   8.780  13.362
   848G11  C0BB58247   9.939   8.434  13.445
   848G11  O00C58248   9.874   8.768  13.553
   848G11  C0BC58249   9.847   8.400  13.544
   848G11  C0B958250   9.846   8.277  13.290
   848G11  O00E58251   9.560   8.097  13.422
   848G11  C0CA58252   9.466   7.998  13.387
   848G11  O00F58253   9.362   7.981  13.449
   848G11  C0BF58254   9.768   8.128  13.117
   848G11  C0C558255   9.498   7.932  13.263
   848G11  C0C458256   9.416   7.822  13.227
   848G11  H01158257   9.343   7.782  13.295
   848G11  C0C858258   9.697   7.973  12.951
   848G11  C0C258259   9.437   7.765  13.096
   848G11  C0C358260   9.371   7.648  13.056
   848G11  C0DY58261   9.293   7.565  13.134
   848G11  H01658262   9.255   7.576  13.234
   848G11  C0DX58263   9.256   7.455  13.053
   848G11  C0DW58264   9.238   7.331  13.124
   848G11  C0BY58265   9.621   7.818  12.778
   848G11  C0DB58266   9.390   7.586  12.932
   848G11  C0CC58267   9.546   7.651  12.617
   848G11  C0D758268   9.411   7.419  12.553
   848G11  C0DZ58269   9.319   7.465  12.921
   848G11  C0DM58270   9.269   7.187  12.567
   848G11  C0DQ58271   9.218   7.180  12.925
   848G11  C0DV58272   9.220   7.211  13.058
   848G11  C0E058273   9.220   7.313  13.274
   848G11  C0FO58274   8.994   7.081  13.409
   848G11  C0E358275   9.139   7.393  13.372
   848G11  H01758276   9.092   7.490  13.358
   848G11  C0GV58277   8.901   7.148  13.487
   848G11  C0ES58278   8.937   6.992  13.311
   848G11  C0GQ58279   8.606   6.944  13.469
   848G11  C0FJ58280   8.577   6.682  13.224
   848G11  C0ED58281   8.830   6.782  13.145
   848G11  C0ER58282   8.838   6.469  13.000
   848G11  C0EP58283   8.921   6.509  12.801
   848G11  C0E658284   9.010   6.853  12.969
   848G11  C0DE58285   9.144   6.898  12.683
   848G11  C0EA58286   9.004   6.560  12.558
   848G11  C0DF58287   9.195   6.881  12.550
   848G11  C08058288   9.103   6.694  12.260
   848G11  C0DO58289   9.200   6.972  12.439
   848G11  C0DJ58290   9.272   7.109  12.211
   848G11  C07K58291   9.193   6.791  12.025
   848G11  C07W58292   9.351   7.121  11.985
   848G11  C08358293   9.383   7.015  11.731
   848G11  C07J58294   9.209   6.745  11.893
   848G11  C06O58295   9.245   6.643  11.626
   848G11  C06M58296   9.358   6.843  11.570
   858G11  C07158297   5.739   4.706  13.926
   858G11  C07L58298   5.701   4.593  13.997
   858G11  C07M58299   5.662   4.474  13.931
   858G11  C07Y58300   5.623   4.358  14.003
   858G11  C08158301   5.602   4.361  14.143
   858G11  C08258302   5.552   4.244  14.201
   858G11  C0DI58303   5.527   4.210  14.343
   858G11  C0DH58304   5.524   4.294  14.458
   858G11  C0DG58305   5.488   4.213  14.575
   858G11  C0E958306   5.420   4.244  14.704
   858G11  C0E858307   5.353   4.112  14.737
   858G11  C0E758308   5.319   4.060  14.866
   858G11  C0EB58309   5.327   4.146  14.979
   858G11  C0EF58310   5.327   4.110  15.119
   858G11  C0EE58311   5.358   3.989  15.189
   858G11  C0FD58312   5.436   4.001  15.307
   858G11  C0FE58313   5.508   4.112  15.353
   858G11  H01B58314   5.524   4.203  15.297
   858G11  C0FF58315   5.586   4.116  15.464
   858G11  H01A58316   5.649   4.200  15.490
   858G11  C0FG58317   5.590   4.003  15.545
   858G11  H01858318   5.651   4.000  15.633
   858G11  C0FH58319   5.514   3.888  15.506
   858G11  C0FI58320   5.517   3.770  15.583
   858G11  H01958321   5.559   3.772  15.682
   858G11  O00K58322   5.458   3.651  15.550
   858G11  C0FL58323   5.383   3.657  15.435
   858G11  C0FK58324   5.377   3.770  15.346
   858G11  C0FM58325   5.299   3.761  15.230
   858G11  C0FN58326   5.225   3.647  15.202
   858G11  C0FP58327   5.236   3.533  15.290
   858G11  C0GO58328   5.193   3.409  15.248
   858G11  C0GN58329   5.233   3.286  15.306
   858G11  C0GR58330   5.306   3.297  15.430
   858G11  C0GS58331   5.349   3.182  15.497
   858G11  H01Q58332   5.402   3.208  15.587
   858G11  C0GT58333   5.325   3.056  15.440
   858G11  H01O58334   5.347   2.960  15.484
   858G11  C0GU58335   5.250   3.051  15.318
   858G11  H01P58336   5.236   2.952  15.278
   858G11  O00L58337   5.334   3.424  15.481
   858G11  C0GM58338   5.206   3.164  15.243
   858G11  C0GL58339   5.136   3.167  15.119
   858G11  H01R58340   5.118   3.080  15.057
   858G11  C0GK58341   5.090   3.288  15.065
   858G11  C0GP58342   5.031   3.331  14.947
   858G11  C0E258343   4.997   3.470  14.959
   858G11  C0E158344   4.990   3.524  14.827
   858G11  C0DU58345   5.062   3.636  14.784
   858G11  C0DT58346   5.124   3.741  14.859
   858G11  C0E458347   5.161   3.741  14.992
   858G11  C0E558348   5.247   3.844  15.012
   858G11  C0DS58349   5.193   3.841  14.795
   858G11  C0DR58350   5.221   3.827  14.658
   858G11  C0DD58351   5.299   3.911  14.572
   858G11  C0DC58352   5.296   3.833  14.444
   858G11  C0DP58353   5.213   3.717  14.444
   858G11  C0DA58354   5.185   3.620  14.336
   858G11  C0D958355   5.188   3.634  14.189
   858G11  C0CR58356   5.124   3.535  14.107
   858G11  C0C058357   5.074   3.421  14.156
   858G11  C0BZ58358   5.005   3.328  14.087
   858G11  C0C158359   4.947   3.217  14.153
   858G11  C0C758360   4.846   3.145  14.090
   858G11  C0C658361   4.784   3.037  14.155
   858G11  C0C958362   4.681   2.970  14.095
   858G11  C0B858363   4.623   2.859  14.161
   858G11  C0B758364   4.502   2.804  14.112
   858G11  C0B658365   4.436   2.671  14.146
   858G11  C0B558366   4.516   2.554  14.166
   858G11  H00Z58367   4.621   2.551  14.190
   858G11  C0B458368   4.437   2.438  14.127
   858G11  H01058369   4.471   2.336  14.119
   858G11  C0B358370   4.309   2.483  14.077
   858G11  C0AP58371   4.236   2.460  13.949
   858G11  C0AQ58372   4.217   2.590  13.901
   858G11  C0AR58373   4.191   2.614  13.759
   858G11  C0AS58374   4.234   2.736  13.718
   858G11  C0AT58375   4.312   2.828  13.790
   858G11  C0BA58376   4.341   2.802  13.919
   858G11  C0AU58377   4.392   2.920  13.719
   858G11  C0BE58378   4.495   2.982  13.785
   858G11  C0BI58379   4.576   3.070  13.707
   858G11  C0BJ58380   4.571   3.071  13.571
   858G11  C0BK58381   4.663   3.146  13.496
   858G11  C0BW58382   4.751   3.232  13.557
   858G11  C0BV58383   4.752   3.231  13.694
   858G11  C0BU58384   4.860   3.298  13.756
   858G11  C0BX58385   4.882   3.277  13.891
   858G11  C0BT58386   4.934   3.394  13.689
   858G11  C0CD58387   5.020   3.481  13.758
   858G11  C0CB58388   5.034   3.461  13.896
   858G11  C0CE58389   5.089   3.571  13.687
   858G11  C0CK58390   5.078   3.588  13.546
   858G11  C0BS58391   4.994   3.499  13.478
   858G11  C0CJ58392   4.986   3.503  13.338
   858G11  C0BP58393   4.902   3.409  13.275
   858G11  C0CI58394   4.892   3.416  13.136
   858G11  C0CH58395   4.824   3.303  13.077
   858G11  H01258396   4.806   3.314  12.971
   858G11  C0BN58397   4.758   3.203  13.145
   858G11  C0CG58398   4.674   3.111  13.082
   858G11  C0CF58399   4.685   3.083  12.941
   858G11  H01358400   4.757   3.133  12.879
   858G11  O00G58401   4.605   3.008  12.874
   858G11  C0AA58402   4.512   2.933  12.946
   858G11  C0A958403   4.427   2.852  12.870
   858G11  H00U58404   4.445   2.838  12.764
   858G11  C0A858405   4.325   2.782  12.938
   858G11  H00V58406   4.261   2.730  12.869
   858G11  C0A758407   4.310   2.788  13.075
   858G11  C0A658408   4.399   2.874  13.155
   858G11  C0A558409   4.392   2.893  13.293
   858G11  C0A458410   4.296   2.824  13.380
   858G11  C0A358411   4.209   2.710  13.362
   858G11  C0A258412   4.202   2.625  13.248
   858G11  C0A158413   4.094   2.532  13.234
   858G11  C0A058414   4.049   2.432  13.330
   858G11  C09Z58415   3.956   2.333  13.280
   858G11  C09Y58416   3.942   2.206  13.341
   858G11  H00Y58417   3.884   2.131  13.290
   858G11  C09X58418   4.023   2.187  13.455
   858G11  C09W58419   4.040   2.054  13.496
   858G11  H00R58420   3.980   1.978  13.447
   858G11  C0AX58421   4.119   2.026  13.608
   858G11  H00S58422   4.144   1.925  13.639
   858G11  C0AW58423   4.158   2.130  13.690
   858G11  H00T58424   4.215   2.107  13.779
   858G11  C0AN58425   4.148   2.263  13.653
   858G11  C0AO58426   4.175   2.377  13.731
   858G11  C0AM58427   4.084   2.291  13.528
   858G11  C0B258428   3.884   2.348  13.155
   858G11  O00D58429   3.799   2.272  13.110
   858G11  C0B158430   3.924   2.458  13.074
   858G11  H00W58431   3.871   2.465  12.980
   858G11  C0AL58432   4.087   2.421  13.464
   858G11  C0AK58433   4.147   2.521  13.537
   858G11  C0B058434   4.031   2.537  13.107
   858G11  C0AZ58435   4.106   2.640  13.039
   858G11  H00X58436   4.085   2.675  12.939
   858G11  C0AJ58437   4.180   2.656  13.490
   858G11  C0AH58438   4.284   2.863  13.516
   858G11  C0AE58439   4.472   2.984  13.364
   858G11  C0AD58440   4.566   3.054  13.289
   858G11  C0AY58441   4.214   2.687  13.120
   858G11  C0AB58442   4.493   2.947  13.087
   858G11  C0AC58443   4.575   3.042  13.152
   858G11  C0BM58444   4.758   3.209  13.284
   858G11  C0CM58445   4.933   3.539  13.074
   858G11  C09M58446   5.039   3.616  13.123
   858G11  C09858447   5.118   3.687  13.025
   858G11  C08R58448   5.224   3.786  13.035
   858G11  C08Q58449   5.276   3.830  12.914
   858G11  C08P58450   5.337   3.957  12.864
   858G11  C08Y58451   5.312   3.995  12.726
   858G11  C09758452   5.207   3.933  12.660
   858G11  C09658453   5.131   4.026  12.598
   858G11  C09058454   5.217   4.141  12.572
   858G11  C09558455   5.182   4.264  12.511
   858G11  C09458456   5.273   4.368  12.486
   858G11  C08J58457   5.396   4.397  12.556
   858G11  C08I58458   5.408   4.540  12.564
   858G11  C08H58459   5.489   4.568  12.678
   858G11  C08G58460   5.500   4.445  12.754
   858G11  C08F58461   5.564   4.408  12.877
   858G11  C08E58462   5.646   4.493  12.947
   858G11  C05958463   5.723   4.598  12.888
   858G11  C05858464   5.813   4.685  12.961
   858G11  C05758465   5.876   4.801  12.909
   858G11  C05658466   5.858   4.823  12.772
   858G11  C05558467   5.809   4.731  12.688
   858G11  C05458468   5.760   4.795  12.575
   858G11  C05358469   5.776   4.939  12.587
   858G11  C05258470   5.729   5.052  12.512
   858G11  C05158471   5.639   5.033  12.398
   858G11  C05U58472   5.571   4.909  12.359
   858G11  C05T58473   5.567   4.780  12.416
   858G11  C06K58474   5.529   4.694  12.309
   858G11  H00J58475   5.533   4.587  12.319
   858G11  C06L58476   5.492   4.769  12.193
   858G11  H00I58477   5.450   4.737  12.099
   858G11  C05V58478   5.513   4.902  12.227
   858G11  C06J58479   5.501   5.008  12.149
   858G11  H00K58480   5.455   5.004  12.051
   858G11  C05X58481   5.537   5.140  12.194
   858G11  C06I58482   5.499   5.258  12.128
   858G11  H00L58483   5.433   5.245  12.043
   858G11  C04Z58484   5.536   5.382  12.168
   858G11  C06H58485   5.509   5.495  12.086
   858G11  H00H58486   5.460   5.489  11.990
   858G11  C04Y58487   5.555   5.629  12.130
   858G11  C06G58488   5.543   5.740  12.040
   858G11  O00958489   5.499   5.742  11.925
   858G11  O00858490   5.595   5.858  12.087
   858G11  C04P58491   5.640   5.880  12.220
   858G11  C04J58492   5.687   6.005  12.271
   858G11  C04Q58493   5.690   6.132  12.214
   858G11  H00E58494   5.652   6.150  12.115
   858G11  C04M58495   5.737   6.252  12.276
   858G11  C04R58496   5.743   6.382  12.216
   858G11  H00F58497   5.706   6.419  12.122
   858G11  C04S58498   5.788   6.484  12.288
   858G11  H00G58499   5.783   6.585  12.251
   858G11  O00758500   5.834   6.472  12.422
   858G11  C03V58501   5.827   6.349  12.475
   858G11  C03U58502   5.854   6.342  12.607
   858G11  O00658503   5.879   6.461  12.671
   858G11  C03F58504   5.905   6.462  12.802
   858G11  C03E58505   5.894   6.339  12.878
   858G11  C03D58506   5.864   6.218  12.818
   858G11  C03C58507   5.865   6.094  12.888
   858G11  C03B58508   5.888   6.111  13.024
   858G11  C03A58509   5.908   5.992  13.096
   858G11  C03958510   5.905   5.862  13.037
   858G11  C03858511   5.940   5.770  13.146
   858G11  C03758512   5.945   5.855  13.258
   858G11  C03658513   5.986   5.813  13.377
   858G11  C02R58514   5.983   5.878  13.499
   858G11  C03558515   5.989   5.771  13.592
   858G11  C03R58516   6.006   5.650  13.532
   858G11  C03S58517   5.963   5.527  13.585
   858G11  C04958518   5.951   5.421  13.504
   858G11  C04858519   5.959   5.447  13.363
   858G11  C03P58520   5.966   5.577  13.300
   858G11  C04758521   5.953   5.329  13.286
   858G11  C04658522   5.969   5.320  13.145
   858G11  C04558523   5.966   5.419  13.045
   858G11  C03T58524   5.953   5.554  13.052
   858G11  C04458525   5.935   5.601  12.919
   858G11  C04358526   5.954   5.493  12.833
   858G11  C04258527   5.903   5.510  12.707
   858G11  C04158528   5.860   5.655  12.719
   858G11  C04058529   5.775   5.719  12.628
   858G11  C03Z58530   5.777   5.867  12.606
   858G11  C04H58531   5.734   5.886  12.476
   858G11  C04G58532   5.699   5.766  12.421
   858G11  C03N58533   5.818   5.980  12.685
   858G11  C03Y58534   5.817   6.103  12.610
   858G11  C03X58535   5.778   6.115  12.475
   858G11  C04F58536   5.723   5.663  12.507
   858G11  C04E58537   5.709   5.534  12.458
   858G11  C04O58538   5.646   5.523  12.328
   858G11  C04D58539   5.757   5.416  12.520
   858G11  C04V58540   5.714   5.296  12.469
   858G11  C04W58541   5.630   5.274  12.356
   858G11  C04C58542   5.849   5.400  12.627
   858G11  C04L58543   5.862   5.254  12.636
   858G11  C04U58544   5.921   5.190  12.755
   858G11  C05Q58545   5.914   5.050  12.785
   858G11  C05P58546   5.937   5.025  12.921
   858G11  C04T58547   5.957   5.144  12.983
   858G11  C04B58548   5.954   5.243  12.882
   858G11  C03M58549   5.890   5.715  12.843
   858G11  C04A58550   5.965   5.382  12.910
   858G11  C05H58551   5.971   5.185  13.118
   858G11  C05G58552   5.946   5.110  13.241
   858G11  C05F58553   5.951   4.971  13.249
   858G11  C05E58554   5.903   4.898  13.362
   858G11  C05L58555   5.868   4.923  13.501
   858G11  C05K58556   5.883   5.049  13.564
   858G11  C05J58557   5.916   5.174  13.494
   858G11  C06658558   5.859   5.053  13.708
   858G11  C06558559   5.818   4.940  13.779
   858G11  C06458560   5.798   4.818  13.711
   858G11  C06N58561   5.789   4.946  13.918
   858G11  C06958562   5.798   5.071  13.984
   858G11  C06P58563   5.767   5.080  14.119
   858G11  C06R58564   5.757   5.202  14.182
   858G11  C06B58565   5.790   5.317  14.114
   858G11  C06S58566   5.778   5.442  14.175
   858G11  C02G58567   5.801   5.558  14.102
   858G11  C02F58568   5.778   5.680  14.165
   858G11  C02758569   5.724   5.690  14.294
   858G11  C02658570   5.693   5.813  14.344
   858G11  C00E58571   5.632   5.822  14.469
   858G11  C00D58572   5.587   5.948  14.509
   858G11  C00C58573   5.516   5.952  14.628
   858G11  C00B58574   5.472   5.844  14.697
   858G11  C01558575   5.510   5.719  14.650
   858G11  C07F58576   5.470   5.603  14.715
   858G11  C07E58577   5.507   5.479  14.664
   858G11  C06W58578   5.582   5.471  14.547
   858G11  C06V58579   5.631   5.589  14.490
   858G11  C06X58580   5.604   5.343  14.492
   858G11  C07B58581   5.563   5.228  14.555
   858G11  C07C58582   5.494   5.237  14.674
   858G11  C0FU58583   5.452   5.123  14.737
   858G11  C0F758584   5.370   5.129  14.846
   858G11  C0F658585   5.331   5.011  14.910
   858G11  C0F858586   5.242   5.023  15.015
   858G11  C0F958587   5.195   4.907  15.072
   858G11  C0FA58588   5.102   4.914  15.174
   858G11  C0FZ58589   5.045   5.034  15.211
   858G11  C0G058590   4.949   5.040  15.308
   858G11  C0GD58591   4.896   4.930  15.371
   858G11  C0FC58592   4.964   4.809  15.346
   858G11  C0GH58593   4.923   4.696  15.417
   858G11  C0EY58594   5.001   4.583  15.402
   858G11  C0EX58595   4.985   4.471  15.484
   858G11  C0EW58596   5.057   4.354  15.460
   858G11  C0FR58597   5.043   4.246  15.552
   858G11  H01D58598   5.093   4.153  15.528
   858G11  C0FS58599   4.960   4.252  15.662
   858G11  H01C58600   4.954   4.163  15.723
   858G11  C0GJ58601   4.884   4.364  15.678
   858G11  H01N58602   4.816   4.356  15.762
   858G11  C0EV58603   5.141   4.345  15.346
   858G11  C0FT58604   5.205   4.220  15.316
   858G11  H01E58605   5.208   4.129  15.375
   858G11  C0EU58606   5.150   4.456  15.264
   858G11  C0ET58607   5.211   4.444  15.140
   858G11  C0EI58608   5.240   4.546  15.053
   858G11  C0F158609   5.195   4.670  15.100
   858G11  C0F058610   5.112   4.677  15.218
   858G11  C0EH58611   5.312   4.527  14.935
   858G11  C0EG58612   5.344   4.394  14.886
   858G11  C0EJ58613   5.348   4.642  14.868
   858G11  C0F358614   5.318   4.768  14.916
   858G11  C0EK58615   5.430   4.630  14.755
   858G11  C0EL58616   5.452   4.504  14.693
   858G11  C0EM58617   5.516   4.511  14.567
   858G11  C0EN58618   5.565   4.631  14.521
   858G11  C07I58619   5.610   4.631  14.392
   858G11  C07458620   5.656   4.739  14.324
   858G11  C07358621   5.696   4.723  14.196
   858G11  C07258622   5.728   4.839  14.126
   858G11  C07558623   5.645   4.856  14.390
   858G11  C07658624   5.583   4.865  14.513
   858G11  C07858625   5.557   4.986  14.570
   858G11  C07G58626   5.680   4.973  14.321
   858G11  C07058627   5.655   5.095  14.375
   858G11  C07Z58628   5.602   4.499  14.347
   858G11  C07758629   5.545   4.752  14.580
   858G11  C0EO58630   5.471   4.751  14.696
   858G11  C0F458631   5.441   4.874  14.748
   858G11  C0EQ58632   5.256   4.320  15.104
   858G11  C0FQ58633   4.893   4.476  15.589
   858G11  C0GI58634   4.813   4.591  15.596
   858G11  H01L58635   4.739   4.592  15.675
   858G11  C0EZ58636   5.088   4.577  15.298
   858G11  C0GG58637   4.821   4.702  15.514
   858G11  C0GF58638   4.743   4.817  15.517
   858G11  H01M58639   4.655   4.815  15.579
   858G11  C0GE58640   4.779   4.932  15.447
   858G11  H01K58641   4.720   5.022  15.437
   858G11  O00J58642   4.893   5.161  15.342
   858G11  C0GA58643   4.943   5.274  15.289
   858G11  C0G958644   4.880   5.394  15.323
   858G11  H01H58645   4.799   5.394  15.394
   858G11  C0G858646   4.927   5.517  15.266
   858G11  C0G758647   4.856   5.637  15.282
   858G11  H01I58648   4.758   5.650  15.325
   858G11  O00I58649   4.903   5.756  15.233
   858G11  C0G658650   5.009   5.755  15.149
   858G11  H01J58651   5.026   5.853  15.108
   858G11  C02D58652   5.080   5.637  15.119
   858G11  C02C58653   5.186   5.635  15.023
   858G11  C01758654   5.243   5.749  14.961
   858G11  C01658655   5.341   5.742  14.860
   858G11  O00158656   5.197   5.874  14.997
   858G11  C01858657   5.221   5.989  14.925
   858G11  C00958658   5.322   5.990  14.827
   858G11  C00858659   5.378   6.106  14.760
   858G11  C00758660   5.343   6.250  14.762
   858G11  C00658661   5.220   6.301  14.808
   858G11  C00558662   5.179   6.432  14.793
   858G11  C00458663   5.233   6.530  14.697
   858G11  C00358664   5.322   6.523  14.581
   858G11  C00258665   5.325   6.635  14.495
   858G11  C00P58666   5.408   6.631  14.382
   858G11  C00O58667   5.398   6.734  14.288
   858G11  C00N58668   5.467   6.728  14.166
   858G11  C01058669   5.434   6.816  14.058
   858G11  C01158670   5.490   6.796  13.930
   858G11  C01Q58671   5.443   6.873  13.825
   858G11  C01U58672   5.351   6.978  13.848
   858G11  C01258673   5.304   7.000  13.975
   858G11  H00058674   5.232   7.079  13.993
   858G11  C01V58675   5.316   7.056  13.733
   858G11  H00758676   5.243   7.136  13.732
   858G11  O00558677   5.356   7.034  13.602
   858G11  C01W58678   5.420   6.910  13.585
   858G11  C03158679   5.416   6.861  13.453
   858G11  C03258680   5.484   6.739  13.435
   858G11  H00A58681   5.493   6.699  13.335
   858G11  C03358682   5.541   6.666  13.543
   858G11  H00B58683   5.567   6.565  13.516
   858G11  C01O58684   5.548   6.724  13.673
   858G11  C01N58685   5.616   6.659  13.775
   858G11  C01M58686   5.716   6.553  13.753
   858G11  C01L58687   5.778   6.471  13.646
   858G11  C01K58688   5.831   6.360  13.709
   858G11  C01Y58689   5.878   6.245  13.645
   858G11  C02I58690   5.893   6.245  13.512
   858G11  C02N58691   5.919   6.119  13.453
   858G11  C02M58692   5.922   6.119  13.310
   858G11  C02L58693   5.906   6.234  13.235
   858G11  C02K58694   5.890   6.360  13.297
   858G11  C02U58695   5.877   6.471  13.217
   858G11  C02V58696   5.902   6.467  13.080
   858G11  C03H58697   5.930   6.586  13.011
   858G11  H00C58698   5.949   6.685  13.051
   858G11  C02W58699   5.846   6.594  13.277
   858G11  C02X58700   5.822   6.590  13.413
   858G11  C02Y58701   5.790   6.724  13.444
   858G11  H00858702   5.776   6.756  13.546
   858G11  C02Z58703   5.789   6.804  13.317
   858G11  O00458704   5.771   6.924  13.298
   858G11  O00358705   5.823   6.715  13.220
   858G11  C02J58706   5.872   6.368  13.438
   858G11  C01Z58707   5.888   6.136  13.732
   858G11  C02058708   5.856   6.141  13.869
   858G11  C01I58709   5.826   6.260  13.933
   858G11  C01H58710   5.761   6.269  14.052
   858G11  C00K58711   5.703   6.390  14.088
   858G11  C01S58712   5.687   6.491  13.992
   858G11  C01458713   5.607   6.603  14.014
   858G11  C00J58714   5.634   6.403  14.205
   858G11  C00I58715   5.629   6.292  14.291
   858G11  C00H58716   5.684   6.167  14.246
   858G11  C00G58717   5.668   6.046  14.315
   858G11  C00S58718   5.561   6.301  14.403
   858G11  C00T58719   5.556   6.187  14.473
   858G11  C00U58720   5.495   6.194  14.594
   858G11  C00R58721   5.486   6.413  14.436
   858G11  C00L58722   5.561   6.515  14.235
   858G11  C02858723   5.750   6.153  14.127
   858G11  C02358724   5.792   6.036  14.076
   858G11  C02458725   5.770   5.917  14.147
   858G11  C02158726   5.843   6.026  13.946
   858G11  C02258727   5.867   5.907  13.895
   858G11  C02H58728   5.853   5.788  13.967
   858G11  C03058729   5.870   5.659  13.909
   858G11  C03458730   5.906   5.653  13.778
   858G11  C02P58731   5.908   5.898  13.764
   858G11  C02B58732   5.911   6.013  13.679
   858G11  C01J58733   5.823   6.372  13.848
   858G11  C01X58734   5.823   6.484  13.507
   858G11  C01T58735   5.754   6.485  13.869
   858G11  H00958736   5.374   6.909  13.366
   858G11  C01P58737   5.470   6.836  13.695
   858G11  C01R58738   5.578   6.688  13.908
   858G11  C00Z58739   5.343   6.921  14.083
   858G11  O00058740   5.296   6.944  14.209
   858G11  C00M58741   5.551   6.618  14.139
   858G11  C00Y58742   5.316   6.846  14.304
   858G11  C01358743   5.257   6.865  14.427
   858G11  H00158744   5.215   6.962  14.450
   858G11  C00Q58745   5.486   6.522  14.352
   858G11  C00158746   5.257   6.761  14.522
   858G11  C00058747   5.190   6.769  14.646
   858G11  H00658748   5.138   6.862  14.668
   858G11  C00W58749   5.402   6.414  14.552
   858G11  C01G58750   5.182   6.662  14.726
   858G11  H00558751   5.117   6.680  14.811
   858G11  C01C58752   5.069   6.454  14.890
   858G11  H00258753   5.014   6.545  14.911
   858G11  C01B58754   5.046   6.330  14.956
   858G11  C01D58755   4.944   6.297  15.051
   858G11  H00358756   4.868   6.365  15.088
   858G11  C01E58757   4.948   6.173  15.098
   858G11  H00458758   4.881   6.143  15.177
   858G11  O00258759   5.033   6.077  15.058
   858G11  C01A58760   5.136   6.233  14.905
   858G11  C00V58761   5.411   6.299  14.642
   858G11  C01958762   5.131   6.104  14.958
   858G11  C02E58763   5.234   5.508  14.982
   858G11  C0FX58764   5.191   5.392  15.039
   858G11  C0FW58765   5.240   5.268  14.994
   858G11  C0GB58766   5.095   5.396  15.139
   858G11  C0G358767   5.332   5.500  14.881
   858G11  C07H58768   5.380   5.376  14.834
   858G11  C0GC58769   5.034   5.513  15.178
   858G11  C0G258770   5.050   5.275  15.193
   858G11  C0G158771   5.095   5.151  15.153
   858G11  C0FB58772   5.062   4.801  15.251
   858G11  C0F258773   5.242   4.782  15.030
   858G11  C0FY58774   5.196   5.149  15.058
   858G11  C0F558775   5.364   4.884  14.857
   858G11  C0FV58776   5.332   5.260  14.891
   858G11  C07958777   5.486   4.995  14.688
   858G11  C07A58778   5.589   5.102  14.501
   858G11  C06Y58779   5.678   5.334  14.370
   858G11  C07D58780   5.463   5.365  14.726
   858G11  C01F58781   5.387   5.614  14.823
   858G11  C00A58782   5.377   5.863  14.797
   858G11  C00X58783   5.484   6.081  14.675
   858G11  C00F58784   5.605   6.060  14.433
   858G11  C02958785   5.594   5.712  14.539
   858G11  C02558786   5.715   5.929  14.272
   858G11  C06U58787   5.695   5.576  14.368
   858G11  C02A58788   5.809   5.795  14.095
   858G11  C05Y58789   5.844   5.549  13.977
   858G11  C05Z58790   5.847   5.428  13.909
   858G11  C06058791   5.885   5.414  13.774
   858G11  C06258792   5.889   5.293  13.702
   858G11  C06T58793   5.721   5.449  14.305
   858G11  C06A58794   5.825   5.312  13.981
   858G11  C06Z58795   5.698   5.213  14.308
   858G11  C06Q58796   5.730   4.967  14.191
   858G11  C06858797   5.830   5.186  13.915
   858G11  C06758798   5.858   5.179  13.775
   858G11  C06358799   5.827   4.810  13.576
   858G11  C06C58800   5.788   4.686  13.513
   858G11  C06D58801   5.797   4.669  13.378
   858G11  C06E58802   5.748   4.563  13.304
   858G11  C07Q58803   5.680   4.463  13.371
   858G11  C07P58804   5.678   4.470  13.510
   858G11  C07T58805   5.619   4.367  13.579
   858G11  C07U58806   5.625   4.366  13.720
   858G11  C07V58807   5.568   4.260  13.786
   858G11  C08458808   5.497   4.163  13.716
   858G11  C08C58809   5.491   4.166  13.577
   858G11  C08B58810   5.430   4.064  13.503
   858G11  C08A58811   5.436   4.071  13.367
   858G11  C08958812   5.493   4.166  13.292
   858G11  C08858813   5.480   4.167  13.152
   858G11  C08758814   5.539   4.272  13.079
   858G11  C08658815   5.609   4.364  13.153
   858G11  C08X58816   5.412   4.069  13.080
   858G11  C08T58817   5.349   3.964  13.162
   858G11  C08D58818   5.560   4.262  13.367
   858G11  C08U58819   5.372   3.971  13.301
   858G11  C08V58820   5.306   3.870  13.370
   858G11  C0CY58821   5.305   3.862  13.503
   858G11  C0CX58822   5.228   3.767  13.558
   858G11  C0CW58823   5.235   3.764  13.699
   858G11  C0CV58824   5.302   3.857  13.770
   858G11  C0D458825   5.366   3.961  13.706
   858G11  C0CU58826   5.305   3.850  13.908
   858G11  C0CT58827   5.244   3.749  13.980
   858G11  C0CS58828   5.177   3.649  13.906
   858G11  C0D658829   5.373   3.944  13.975
   858G11  C0EC58830   5.447   4.048  13.914
   858G11  C07X58831   5.515   4.144  13.985
   858G11  C0DL58832   5.393   3.924  14.108
   858G11  C0DK58833   5.463   4.018  14.177
   858G11  C0DN58834   5.446   3.989  14.309
   858G11  C0D858835   5.328   3.832  14.192
   858G11  C08W58836   5.236   3.788  13.279
   858G11  C0CQ58837   5.149   3.683  13.338
   858G11  C09358838   5.367   3.963  13.570
   858G11  C09258839   5.431   4.059  13.776
   858G11  C08558840   5.564   4.262  13.507
   858G11  C07S58841   5.620   4.362  13.298
   858G11  C06F58842   5.752   4.557  13.161
   858G11  C07O58843   5.730   4.581  13.581
   858G11  C07N58844   5.719   4.585  13.718
   858G11  C05D58845   5.867   4.772  13.310
   858G11  C05C58846   5.877   4.760  13.175
   858G11  C05N58847   5.929   4.881  13.137
   858G11  C05M58848   5.942   5.196  13.350
   858G11  C05I58849   5.919   5.294  13.562
   858G11  C06158850   5.923   5.529  13.714
   858G11  C02Q58851   5.934   5.771  13.715
   858G11  C02O58852   5.937   6.008  13.538
   858G11  C03Q58853   5.997   5.675  13.398
   858G11  C03O58854   5.948   5.627  13.166
   858G11  C03L58855   5.872   5.847  12.897
   858G11  C02S58856   5.927   5.992  13.234
   858G11  C02T58857   5.899   6.230  13.089
   858G11  C03K58858   5.846   5.968  12.824
   858G11  C03I58859   5.893   6.345  13.017
   858G11  C03G58860   5.931   6.581  12.871
   858G11  H00D58861   5.950   6.678  12.828
   858G11  C03J58862   5.850   6.219  12.677
   858G11  C03W58863   5.785   6.240  12.406
   858G11  C04I58864   5.732   6.009  12.405
   858G11  C04K58865   5.659   5.767  12.294
   858G11  C04N58866   5.624   5.639  12.248
   858G11  C04X58867   5.609   5.391  12.284
   858G11  C05058868   5.602   5.147  12.315
   858G11  C05W58869   5.772   5.188  12.543
   858G11  C05S58870   5.639   4.734  12.539
   858G11  C05R58871   5.859   4.945  12.706
   858G11  C05O58872   5.921   4.905  12.991
   858G11  C05B58873   5.815   4.661  13.097
   858G11  C05A58874   5.717   4.642  12.751
   858G11  C07R58875   5.673   4.468  13.084
   858G11  C08N58876   5.516   4.286  12.939
   858G11  C08M58877   5.440   4.193  12.872
   858G11  C08L58878   5.400   4.220  12.739
   858G11  C09158879   5.614   4.637  12.645
   858G11  C09K58880   5.280   4.593  12.522
   858G11  H00M58881   5.243   4.685  12.565
   858G11  C08K58882   5.436   4.342  12.680
   858G11  C09J58883   5.201   4.490  12.470
   858G11  C09I58884   5.064   4.454  12.466
   858G11  C09L58885   4.938   4.528  12.429
   858G11  H00N58886   4.951   4.631  12.397
   858G11  C09Q58887   4.819   4.464  12.448
   858G11  H00O58888   4.724   4.512  12.428
   858G11  O00B58889   4.814   4.333  12.491
   858G11  C09G58890   4.923   4.252  12.506
   858G11  C09F58891   4.894   4.110  12.515
   858G11  O00A58892   4.760   4.081  12.505
   858G11  C09P58893   4.736   3.949  12.498
   858G11  H00P58894   4.692   3.896  12.415
   858G11  C09O58895   4.786   3.875  12.606
   858G11  C09D58896   4.925   3.894  12.632
   858G11  C09C58897   5.016   3.807  12.710
   858G11  C09N58898   4.993   3.706  12.806
   858G11  C09T58899   4.863   3.665  12.855
   858G11  C09S58900   4.741   3.703  12.793
   858G11  C0CP58901   4.647   3.639  12.872
   858G11  C0CN58902   4.693   3.578  12.986
   858G11  C0CO58903   4.600   3.530  13.082
   858G11  H01458904   4.626   3.499  13.182
   858G11  C0CZ58905   4.467   3.536  13.046
   858G11  H01558906   4.403   3.487  13.118
   858G11  C0D058907   4.422   3.595  12.925
   858G11  C0G558908   4.282   3.593  12.876
   858G11  H01F58909   4.208   3.542  12.936
   858G11  C0G458910   4.240   3.655  12.761
   858G11  H01G58911   4.134   3.662  12.739
   858G11  O00H58912   4.330   3.716  12.680
   858G11  C0D258913   4.463   3.714  12.721
   858G11  C09V58914   4.562   3.778  12.645
   858G11  H00Q58915   4.519   3.830  12.560
   858G11  C0D158916   4.512   3.654  12.837
   858G11  C09R58917   4.703   3.784  12.682
   858G11  C09H58918   5.049   4.316  12.494
   858G11  C09E58919   4.989   4.011  12.569
   858G11  C09B58920   5.153   3.821  12.715
   858G11  C08Z58921   5.315   4.126  12.678
   858G11  C08O58922   5.393   4.074  12.942
   858G11  C09A58923   5.218   3.748  12.817
   858G11  C08S58924   5.264   3.848  13.149
   858G11  C09958925   5.112   3.677  12.882
   858G11  C09U58926   4.836   3.595  12.980
   858G11  C0BO58927   4.836   3.308  13.346
   858G11  C0CL58928   5.058   3.599  13.266
   858G11  C0D358929   5.154   3.680  13.480
   858G11  C0D558930   5.167   3.665  13.766
   858G11  C0BR58931   4.921   3.407  13.548
   858G11  C0BQ58932   4.842   3.314  13.483
   858G11  C0BL58933   4.667   3.133  13.360
   858G11  C0AF58934   4.476   2.994  13.508
   858G11  C0BH58935   4.676   3.142  13.766
   858G11  C0BG58936   4.703   3.119  13.898
   858G11  C0BD58937   4.527   2.952  13.915
   858G11  C0AG58938   4.384   2.934  13.581
   858G11  C0AI58939   4.224   2.754  13.582
   858G11  C0AV58940   4.170   2.505  13.673
   858G11  C0BB58941   4.279   2.687  13.980
   858G11  O00C58942   4.210   2.354  13.864
   858G11  C0BC58943   4.315   2.625  14.099
   858G11  C0B958944   4.449   2.859  13.989
   858G11  O00E58945   4.689   2.798  14.266
   858G11  C0CA58946   4.770   2.874  14.347
   858G11  O00F58947   4.792   2.832  14.463
   858G11  C0BF58948   4.636   3.013  13.967
   858G11  C0C558949   4.829   2.992  14.282
   858G11  C0C458950   4.929   3.072  14.347
   858G11  H01158951   4.959   3.049  14.447
   858G11  C0C858952   4.812   3.184  13.962
   858G11  C0C258953   4.988   3.179  14.280
   858G11  C0C358954   5.069   3.274  14.346
   858G11  C0DY58955   5.101   3.276  14.480
   858G11  H01658956   5.084   3.203  14.558
   858G11  C0DX58957   5.138   3.416  14.506
   858G11  C0DW58958   5.081   3.481  14.619
   858G11  C0BY58959   4.978   3.354  13.958
   858G11  C0DB58960   5.107   3.389  14.288
   858G11  C0CC58961   5.118   3.544  13.968
   858G11  C0D758962   5.244   3.736  14.122
   858G11  C0DZ58963   5.153   3.485  14.376
   858G11  C0DM58964   5.367   3.867  14.326
   858G11  C0DQ58965   5.180   3.712  14.583
   858G11  C0DV58966   5.106   3.614  14.653
   858G11  C0E058967   5.009   3.421  14.735
   858G11  C0FO58968   5.068   3.520  15.072
   858G11  C0E358969   5.048   3.303  14.810
   858G11  H01758970   5.107   3.220  14.773
   858G11  C0GV58971   5.107   3.406  15.139
   858G11  C0ES58972   5.144   3.639  15.090
   858G11  C0GQ58973   5.319   3.537  15.402
   858G11  C0FJ58974   5.443   3.890  15.385
   858G11  C0ED58975   5.306   3.871  15.141
   858G11  C0ER58976   5.261   4.214  15.194
   858G11  C0EP58977   5.310   4.288  14.983
   858G11  C0E658978   5.262   3.926  14.890
   858G11  C0DE58979   5.385   4.017  14.625
   858G11  C0EA58980   5.404   4.381  14.761
   858G11  C0DF58981   5.479   4.083  14.535
   858G11  C08058982   5.548   4.430  14.456
   858G11  C0DO58983   5.477   4.090  14.392
   858G11  C0DJ58984   5.515   4.138  14.123
   858G11  C07K58985   5.635   4.480  14.206
   858G11  C07W58986   5.568   4.253  13.922
   858G11  C08358987   5.673   4.473  13.792
   858G11  C07J58988   5.683   4.597  14.136
   858G11  C06O58989   5.756   4.830  13.991
   858G11  C06M58990   5.761   4.704  13.786
   868G11  C07158991   9.997   9.468   9.919
   868G11  C07L58992   9.894   9.379   9.884
   868G11  C07M58993   9.761   9.416   9.901
   868G11  C07Y58994   9.652   9.325   9.869
   868G11  C08158995   9.681   9.194   9.821
   868G11  C08258996   9.571   9.107   9.795
   868G11  C0DI58997   9.568   8.960   9.782
   868G11  C0DH58998   9.672   8.864   9.755
   868G11  C0DG58999   9.620   8.731   9.755
   868G11  C0E959000   9.639   8.619   9.665
   868G11  C0E859001   9.506   8.568   9.616
   868G11  C0E759002   9.483   8.468   9.517
   868G11  C0EB59003   9.587   8.372   9.487
   868G11  C0EF59004   9.580   8.248   9.403
   868G11  C0EE59005   9.533   8.239   9.271
   868G11  C0FD59006   9.621   8.193   9.168
   868G11  C0FE59007   9.763   8.185   9.179
   868G11  H01B59008   9.813   8.211   9.271
   868G11  C0FF59009   9.840   8.126   9.081
   868G11  H01A59010   9.945   8.103   9.090
   868G11  C0FG59011   9.777   8.109   8.952
   868G11  H01859012   9.843   8.082   8.871
   868G11  C0FH59013   9.642   8.135   8.931
   868G11  C0FI59014   9.582   8.119   8.805
   868G11  H01959015   9.645   8.074   8.729
   868G11  O00K59016   9.455   8.165   8.776
   868G11  C0FL59017   9.377   8.197   8.889
   868G11  C0FK59018   9.428   8.204   9.024
   868G11  C0FM59019   9.344   8.254   9.126
   868G11  C0FN59020   9.208   8.276   9.101
   868G11  C0FP59021   9.158   8.261   8.976
   868G11  C0GO59022   9.027   8.288   8.942
   868G11  C0GN59023   8.977   8.300   8.813
   868G11  C0GR59024   9.068   8.271   8.705
   868G11  C0GS59025   9.025   8.278   8.574
   868G11  H01Q59026   9.090   8.240   8.496
   868G11  C0GT59027   8.900   8.331   8.544
   868G11  H01O59028   8.863   8.343   8.443
   868G11  C0GU59029   8.813   8.373   8.650
   868G11  H01P59030   8.713   8.408   8.629
   868G11  O00L59031   9.190   8.214   8.739
   868G11  C0GM59032   8.850   8.357   8.787
   868G11  C0GL59033   8.775   8.402   8.901
   868G11  H01R59034   8.677   8.446   8.889
   868G11  C0GK59035   8.814   8.370   9.029
   868G11  C0GP59036   8.779   8.399   9.168
   868G11  C0E259037   8.863   8.326   9.253
   868G11  C0E159038   8.870   8.381   9.379
   868G11  C0DU59039   8.986   8.444   9.437
   868G11  C0DT59040   9.119   8.405   9.425
   868G11  C0E459041   9.181   8.339   9.321
   868G11  C0E559042   9.315   8.348   9.347
   868G11  C0DS59043   9.221   8.479   9.499
   868G11  C0DR59044   9.177   8.587   9.577
   868G11  C0DD59045   9.257   8.676   9.651
   868G11  C0DC59046   9.160   8.786   9.689
   868G11  C0DP59047   9.022   8.755   9.655
   868G11  C0DA59048   8.900   8.833   9.679
   868G11  C0D959049   8.875   8.971   9.743
   868G11  C0CR59050   8.745   9.020   9.776
   868G11  C0C059051   8.633   8.944   9.753
   868G11  C0BZ59052   8.502   8.971   9.799
   868G11  C0C159053   8.398   8.882   9.782
   868G11  C0C759054   8.275   8.908   9.844
   868G11  C0C659055   8.163   8.824   9.822
   868G11  C0C959056   8.044   8.841   9.894
   868G11  C0B859057   7.930   8.762   9.859
   868G11  C0B759058   7.816   8.770   9.938
   868G11  C0B659059   7.684   8.713   9.924
   868G11  C0B559060   7.628   8.664   9.801
   868G11  H00Z59061   7.676   8.641   9.707
   868G11  C0B459062   7.482   8.668   9.827
   868G11  H01059063   7.399   8.656   9.760
   868G11  C0B359064   7.458   8.714   9.961
   868G11  C0AP59065   7.367   8.793  10.044
   868G11  C0AQ59066   7.457   8.856  10.137
   868G11  C0AR59067   7.431   8.983  10.188
   868G11  C0AS59068   7.542   9.050  10.223
   868G11  C0AT59069   7.672   9.019  10.175
   868G11  C0BA59070   7.693   8.902  10.115
   868G11  C0AU59071   7.773   9.116  10.170
   868G11  C0BE59072   7.893   9.091  10.108
   868G11  C0BI59073   7.980   9.195  10.091
   868G11  C0BJ59074   7.947   9.322  10.124
   868G11  C0BK59075   8.043   9.422  10.117
   868G11  C0BW59076   8.171   9.396  10.073
   868G11  C0BV59077   8.204   9.266  10.023
   868G11  C0BU59078   8.333   9.238   9.978
   868G11  C0BX59079   8.353   9.119   9.916
   868G11  C0BT59080   8.429   9.335   9.985
   868G11  C0CD59081   8.556   9.300   9.934
   868G11  C0CB59082   8.586   9.179   9.878
   868G11  C0CE59083   8.656   9.390   9.956
   868G11  C0CK59084   8.632   9.516  10.016
   868G11  C0BS59085   8.503   9.558  10.050
   868G11  C0CJ59086   8.480   9.679  10.116
   868G11  C0BP59087   8.341   9.717  10.140
   868G11  C0CI59088   8.307   9.837  10.186
   868G11  C0CH59089   8.171   9.877  10.177
   868G11  H01259090   8.168   9.983  10.194
   868G11  C0BN59091   8.069   9.780  10.177
   868G11  C0CG59092   7.939   9.814  10.210
   868G11  C0CF59093   7.901   9.951  10.238
   868G11  H01359094   7.973  10.031  10.245
   868G11  O00G59095   7.768   9.985  10.265
   868G11  C0AA59096   7.691   9.879  10.300
   868G11  C0A959097   7.570   9.908  10.360
   868G11  H00U59098   7.548  10.009  10.393
   868G11  C0A859099   7.468   9.816  10.379
   868G11  H00V59100   7.377   9.861  10.416
   868G11  C0A759101   7.484   9.679  10.344
   868G11  C0A659102   7.614   9.640  10.292
   868G11  C0A559103   7.654   9.512  10.256
   868G11  C0A459104   7.561   9.404  10.273
   868G11  C0A359105   7.420   9.381  10.292
   868G11  C0A259106   7.321   9.483  10.286
   868G11  C0A159107   7.184   9.450  10.312
   868G11  C0A059108   7.094   9.333  10.284
   868G11  C09Z59109   6.956   9.350  10.314
   868G11  C09Y59110   6.863   9.257  10.256
   868G11  H00Y59111   6.759   9.280  10.268
   868G11  C09X59112   6.911   9.157  10.175
   868G11  C09W59113   6.818   9.095  10.098
   868G11  H00R59114   6.714   9.123  10.086
   868G11  C0AX59115   6.850   8.984  10.021
   868G11  H00S59116   6.772   8.931   9.969
   868G11  C0AW59117   6.981   8.933  10.031
   868G11  H00T59118   7.012   8.848   9.972
   868G11  C0AN59119   7.078   9.005  10.100
   868G11  C0AO59120   7.209   8.959  10.110
   868G11  C0AM59121   7.046   9.125  10.167
   868G11  C0B259122   6.896   9.460  10.387
   868G11  O00D59123   6.776   9.473  10.408
   868G11  C0B159124   6.988   9.567  10.422
   868G11  H00W59125   6.943   9.652  10.472
   868G11  C0AL59126   7.142   9.211  10.228
   868G11  C0AK59127   7.272   9.167  10.226
   868G11  C0B059128   7.127   9.557  10.377
   868G11  C0AZ59129   7.232   9.655  10.397
   868G11  H00X59130   7.217   9.747  10.451
   868G11  C0AJ59131   7.387   9.245  10.268
   868G11  C0AH59132   7.617   9.274  10.261
   868G11  C0AE59133   7.782   9.479  10.206
   868G11  C0AD59134   7.879   9.582  10.196
   868G11  C0AY59135   7.356   9.612  10.335
   868G11  C0AB59136   7.715   9.742  10.275
   868G11  C0AC59137   7.842   9.712  10.219
   868G11  C0BM59138   8.109   9.651  10.155
   868G11  C0CM59139   8.410   9.911  10.254
   868G11  C09M59140   8.547   9.893  10.216
   868G11  C09859141   8.633  10.008  10.234
   868G11  C08R59142   8.779  10.024  10.223
   868G11  C08Q59143   8.833  10.153  10.238
   868G11  C08P59144   8.951  10.205  10.306
   868G11  C08Y59145   8.936  10.311  10.392
   868G11  C09759146   8.811  10.361  10.414
   868G11  C09659147   8.804  10.425  10.532
   868G11  C09059148   8.944  10.432  10.578
   868G11  C09559149   8.994  10.491  10.694
   868G11  C09459150   9.135  10.514  10.723
   868G11  C08J59151   9.252  10.453  10.671
   868G11  C08I59152   9.359  10.547  10.668
   868G11  C08H59153   9.460  10.500  10.573
   868G11  C08G59154   9.397  10.385  10.493
   868G11  C08F59155   9.431  10.288  10.384
   868G11  C08E59156   9.562  10.273  10.334
   868G11  C05959157   9.675  10.359  10.358
   868G11  C05859158   9.797  10.326  10.302
   868G11  C05759159   9.914  10.401  10.315
   868G11  C05659160   9.908  10.518  10.395
   868G11  C05559161   9.786  10.562  10.433
   868G11  C05459162   9.811  10.644  10.549
   868G11  C05359163   9.954  10.643  10.579
   868G11  C05259164  10.025  10.694  10.695
   868G11  C05159165   9.959  10.754  10.813
   868G11  C05U59166   9.809  10.775  10.822
   868G11  C05T59167   9.695  10.718  10.752
   868G11  C06K59168   9.585  10.790  10.812
   868G11  H00J59169   9.483  10.793  10.775
   868G11  C06L59170   9.622  10.871  10.923
   868G11  H00I59171   9.554  10.930  10.982
   868G11  C05V59172   9.763  10.856  10.927
   868G11  C06J59173   9.844  10.907  11.027
   868G11  H00K59174   9.797  10.956  11.111
   868G11  C05X59175   9.980  10.873  11.034
   868G11  C06I59176  10.067  10.912  11.137
   868G11  H00L59177  10.023  10.966  11.219
   868G11  C04Z59178  10.203  10.877  11.147
   868G11  C06H59179  10.282  10.914  11.262
   868G11  H00H59180  10.235  10.961  11.347
   868G11  C04Y59181  10.420  10.880  11.265
   868G11  C06G59182  10.502  10.918  11.380
   868G11  O00959183  10.452  10.968  11.480
   868G11  O00859184  10.635  10.887  11.378
   868G11  C04P59185  10.690  10.817  11.274
   868G11  C04J59186  10.829  10.776  11.270
   868G11  C04Q59187  10.936  10.817  11.354
   868G11  H00E59188  10.914  10.892  11.429
   868G11  C04M59189  11.066  10.774  11.351
   868G11  C04R59190  11.170  10.808  11.438
   868G11  H00F59191  11.150  10.881  11.515
   868G11  C04S59192  11.291  10.752  11.430
   868G11  H00G59193  11.362  10.783  11.505
   868G11  O00759194  11.320  10.651  11.339
   868G11  C03V59195  11.226  10.622  11.244
   868G11  C03U59196  11.250  10.536  11.135
   868G11  O00659197  11.379  10.489  11.137
   868G11  C03F59198  11.414  10.401  11.037
   868G11  C03E59199  11.323  10.363  10.937
   868G11  C03D59200  11.192  10.418  10.929
   868G11  C03C59201  11.105  10.385  10.828
   868G11  C03B59202  11.157  10.290  10.736
   868G11  C03A59203  11.072  10.255  10.630
   868G11  C03959204  10.942  10.309  10.617
   868G11  C03859205  10.894  10.245  10.496
   868G11  C03759206  11.000  10.161  10.452
   868G11  C03659207  10.989  10.092  10.332
   868G11  C02R59208  11.078   9.997  10.289
   868G11  C03559209  11.003   9.930  10.183
   868G11  C03R59210  10.879   9.983  10.170
   868G11  C03S59211  10.768   9.908  10.132
   868G11  C04959212  10.643   9.956  10.168
   868G11  C04859213  10.641  10.075  10.245
   868G11  C03P59214  10.752  10.132  10.317
   868G11  C04759215  10.517  10.135  10.246
   868G11  C04659216  10.475  10.250  10.313
   868G11  C04559217  10.544  10.330  10.401
   868G11  C03T59218  10.671  10.322  10.456
   868G11  C04459219  10.675  10.407  10.572
   868G11  C04359220  10.565  10.493  10.555
   868G11  C04259221  10.536  10.564  10.669
   868G11  C04159222  10.654  10.533  10.747
   868G11  C04059223  10.678  10.585  10.878
   868G11  C03Z59224  10.803  10.577  10.951
   868G11  C04H59225  10.780  10.656  11.067
   868G11  C04G59226  10.650  10.698  11.065
   868G11  C03N59227  10.933  10.515  10.943
   868G11  C03Y59228  11.026  10.553  11.042
   868G11  C03X59229  10.997  10.636  11.154
   868G11  C04F59230  10.585  10.660  10.954
   868G11  C04E59231  10.451  10.701  10.938
   868G11  C04O59232  10.393  10.777  11.045
   868G11  C04D59233  10.367  10.669  10.831
   868G11  C04V59234  10.237  10.714  10.827
   868G11  C04W59235  10.176  10.779  10.932
   868G11  C04C59236  10.401  10.605  10.710
   868G11  C04L59237  10.277  10.619  10.635
   868G11  C04U59238  10.262  10.571  10.499
   868G11  C05Q59239  10.138  10.531  10.443
   868G11  C05P59240  10.149  10.429  10.350
   868G11  C04T59241  10.281  10.389  10.346
   868G11  C04B59242  10.346  10.472  10.435
   868G11  C03M59243  10.750  10.443  10.687
   868G11  C04A59244  10.477  10.435  10.458
   868G11  C05H59245  10.346  10.281  10.282
   868G11  C05G59246  10.293  10.173  10.199
   868G11  C05F59247  10.159  10.157  10.162
   868G11  C05E59248  10.105  10.032  10.123
   868G11  C05L59249  10.153   9.901  10.081
   868G11  C05K59250  10.288   9.867  10.076
   868G11  C05J59251  10.402   9.939  10.123
   868G11  C06659252  10.313   9.739  10.025
   868G11  C06559253  10.209   9.647   9.994
   868G11  C06459254  10.076   9.685  10.000
   868G11  C06N59255  10.238   9.514   9.944
   868G11  C06959256  10.368   9.471   9.935
   868G11  C06P59257  10.392   9.344   9.883
   868G11  C06R59258  10.526   9.295   9.882
   868G11  C06B59259  10.630   9.374   9.920
   868G11  C06S59260  10.761   9.326   9.910
   868G11  C02G59261  10.867   9.401   9.955
   868G11  C02F59262  10.999   9.350   9.970
   868G11  C02759263  11.020   9.219   9.934
   868G11  C02659264  11.144   9.166   9.958
   868G11  C00E59265  11.162   9.029   9.950
   868G11  C00D59266  11.286   8.978   9.985
   868G11  C00C59267  11.296   8.842   9.989
   868G11  C00B59268  11.197   8.751   9.951
   868G11  C01559269  11.077   8.808   9.905
   868G11  C07F59270  10.972   8.722   9.879
   868G11  C07E59271  10.851   8.777   9.842
   868G11  C06W59272  10.832   8.913   9.851
   868G11  C06V59273  10.935   9.000   9.874
   868G11  C06X59274  10.704   8.969   9.830
   868G11  C07B59275  10.600   8.886   9.802
   868G11  C07C59276  10.622   8.749   9.788
   868G11  C0FU59277  10.507   8.669   9.764
   868G11  C0F759278  10.524   8.532   9.759
   868G11  C0F659279  10.416   8.446   9.735
   868G11  C0F859280  10.431   8.310   9.733
   868G11  C0F959281  10.325   8.231   9.703
   868G11  C0FA59282  10.346   8.091   9.701
   868G11  C0FZ59283  10.471   8.037   9.734
   868G11  C0G059284  10.486   7.896   9.729
   868G11  C0GD59285  10.394   7.813   9.665
   868G11  C0FC59286  10.279   7.872   9.617
   868G11  C0GH59287  10.178   7.788   9.563
   868G11  C0EY59288  10.050   7.845   9.536
   868G11  C0EX59289   9.944   7.762   9.502
   868G11  C0EW59290   9.819   7.817   9.474
   868G11  C0FR59291   9.706   7.733   9.452
   868G11  H01D59292   9.606   7.770   9.437
   868G11  C0FS59293   9.721   7.599   9.434
   868G11  H01C59294   9.630   7.544   9.412
   868G11  C0GJ59295   9.848   7.545   9.438
   868G11  H01N59296   9.874   7.442   9.418
   868G11  C0EV59297   9.802   7.958   9.476
   868G11  C0FT59298   9.689   8.014   9.424
   868G11  H01E59299   9.620   7.972   9.352
   868G11  C0EU59300   9.901   8.039   9.535
   868G11  C0ET59301   9.874   8.167   9.565
   868G11  C0EI59302   9.971   8.255   9.611
   868G11  C0F159303  10.095   8.200   9.638
   868G11  C0F059304  10.122   8.064   9.624
   868G11  C0EH59305   9.939   8.391   9.622
   868G11  C0EG59306   9.805   8.444   9.604
   868G11  C0EJ59307  10.050   8.477   9.657
   868G11  C0F359308  10.182   8.421   9.669
   868G11  C0EK59309  10.028   8.615   9.664
   868G11  C0EL59310   9.897   8.665   9.666
   868G11  C0EM59311   9.898   8.808   9.689
   868G11  C0EN59312  10.016   8.878   9.704
   868G11  C07I59313   9.993   9.012   9.720
   868G11  C07459314  10.094   9.097   9.765
   868G11  C07359315  10.056   9.216   9.815
   868G11  C07259316  10.159   9.309   9.843
   868G11  C07559317  10.221   9.043   9.775
   868G11  C07659318  10.244   8.914   9.742
   868G11  C07859319  10.366   8.860   9.757
   868G11  C07G59320  10.319   9.128   9.808
   868G11  C07059321  10.449   9.077   9.814
   868G11  C07Z59322   9.860   9.037   9.745
   868G11  C07759323  10.142   8.826   9.705
   868G11  C0EO59324  10.148   8.691   9.687
   868G11  C0F459325  10.273   8.635   9.709
   868G11  C0EQ59326   9.753   8.219   9.533
   868G11  C0FQ59327   9.962   7.623   9.479
   868G11  C0GI59328  10.091   7.577   9.503
   868G11  H01L59329  10.106   7.471   9.490
   868G11  C0EZ59330  10.026   7.981   9.565
   868G11  C0GG59331  10.198   7.653   9.551
   868G11  C0GF59332  10.317   7.595   9.588
   868G11  H01M59333  10.343   7.492   9.571
   868G11  C0GE59334  10.412   7.676   9.647
   868G11  H01K59335  10.509   7.635   9.673
   868G11  O00J59336  10.598   7.838   9.783
   868G11  C0GA59337  10.695   7.928   9.830
   868G11  C0G959338  10.810   7.869   9.887
   868G11  H01H59339  10.809   7.762   9.907
   868G11  C0G859340  10.921   7.946   9.933
   868G11  C0G759341  11.045   7.892   9.991
   868G11  H01I59342  11.078   7.790  10.001
   868G11  O00I59343  11.135   7.976  10.051
   868G11  C0G659344  11.135   8.101   9.994
   868G11  H01J59345  11.234   8.144   9.987
   868G11  C02D59346  11.013   8.169   9.954
   868G11  C02C59347  11.012   8.308   9.925
   868G11  C01759348  11.117   8.394   9.949
   868G11  C01659349  11.106   8.533   9.941
   868G11  O00159350  11.237   8.348   9.989
   868G11  C01859351  11.334   8.418  10.055
   868G11  C00959352  11.327   8.557  10.040
   868G11  C00859353  11.421   8.656  10.082
   868G11  C00759354  11.547   8.651  10.157
   868G11  C00659355  11.586   8.538  10.229
   868G11  C00559356  11.701   8.533  10.312
   868G11  C00459357  11.790   8.638  10.349
   868G11  C00359358  11.781   8.784  10.341
   868G11  C00259359  11.879   8.866  10.412
   868G11  C00P59360  11.869   9.011  10.406
   868G11  C00O59361  11.947   9.085  10.495
   868G11  C00N59362  11.938   9.225  10.497
   868G11  C01059363  12.016   9.299  10.582
   868G11  C01159364  11.998   9.434  10.597
   868G11  C01Q59365  12.071   9.505  10.692
   868G11  C01U59366  12.168   9.440  10.772
   868G11  C01259367  12.201   9.302  10.748
   868G11  H00059368  12.276   9.255  10.810
   868G11  C01V59369  12.224   9.516  10.876
   868G11  H00759370  12.298   9.464  10.935
   868G11  O00559371  12.197   9.647  10.895
   868G11  C01W59372  12.119   9.708  10.807
   868G11  C03159373  12.096   9.846  10.834
   868G11  C03259374  12.013   9.918  10.742
   868G11  H00A59375  11.992  10.022  10.764
   868G11  C03359376  11.951   9.846  10.643
   868G11  H00B59377  11.890   9.909  10.579
   868G11  C01O59378  11.958   9.706  10.633
   868G11  C01N59379  11.875   9.636  10.542
   868G11  C01M59380  11.763   9.699  10.472
   868G11  C01L59381  11.659   9.805  10.487
   868G11  C01K59382  11.578   9.792  10.378
   868G11  C01Y59383  11.447   9.841  10.366
   868G11  C02I59384  11.408   9.936  10.457
   868G11  C02N59385  11.280   9.993  10.442
   868G11  C02M59386  11.245  10.095  10.537
   868G11  C02L59387  11.327  10.140  10.639
   868G11  C02K59388  11.444  10.072  10.657
   868G11  C02U59389  11.520  10.101  10.770
   868G11  C02V59390  11.491  10.215  10.844
   868G11  C03H59391  11.588  10.257  10.936
   868G11  H00C59392  11.690  10.225  10.948
   868G11  C02W59393  11.615  10.012  10.819
   868G11  C02X59394  11.643   9.904  10.734
   868G11  C02Y59395  11.728   9.822  10.821
   868G11  H00859396  11.784   9.731  10.806
   868G11  C02Z59397  11.738   9.883  10.958
   868G11  O00459398  11.805   9.841  11.047
   868G11  O00359399  11.663   9.999  10.947
   868G11  C02J59400  11.485   9.964  10.569
   868G11  C01Z59401  11.364   9.779  10.275
   868G11  C02059402  11.405   9.660  10.204
   868G11  C01I59403  11.525   9.602  10.223
   868G11  C01H59404  11.554   9.475  10.195
   868G11  C00K59405  11.663   9.411  10.247
   868G11  C01S59406  11.752   9.481  10.334
   868G11  C01459407  11.841   9.426  10.419
   868G11  C00J59408  11.679   9.270  10.247
   868G11  C00I59409  11.585   9.201  10.173
   868G11  C00H59410  11.476   9.269  10.113
   868G11  C00G59411  11.375   9.193  10.054
   868G11  C00S59412  11.593   9.062  10.170
   868G11  C00T59413  11.498   8.999  10.089
   868G11  C00U59414  11.507   8.861  10.097
   868G11  C00R59415  11.694   8.995  10.250
   868G11  C00L59416  11.770   9.211  10.328
   868G11  C02859417  11.457   9.407  10.128
   868G11  C02359418  11.337   9.461  10.091
   868G11  C02459419  11.235   9.382  10.033
   868G11  C02159420  11.307   9.590  10.133
   868G11  C02259421  11.180   9.635  10.119
   868G11  C02H59422  11.081   9.563  10.057
   868G11  C03059423  10.948   9.603  10.050
   868G11  C03459424  10.917   9.728  10.091
   868G11  C02P59425  11.145   9.760  10.175
   868G11  C02B59426  11.239   9.828  10.257
   868G11  C01J59427  11.619   9.682  10.303
   868G11  C01X59428  11.607   9.893  10.596
   868G11  C01T59429  11.729   9.623  10.357
   868G11  H00959430  12.154   9.889  10.915
   868G11  C01P59431  12.046   9.639  10.709
   868G11  C01R59432  11.908   9.497  10.515
   868G11  C00Z59433  12.113   9.229  10.665
   868G11  O00059434  12.116   9.092  10.670
   868G11  C00M59435  11.851   9.288  10.413
   868G11  C00Y59436  12.030   9.024  10.585
   868G11  C01359437  12.052   8.890  10.575
   868G11  H00159438  12.123   8.834  10.633
   868G11  C00Q59439  11.780   9.073  10.327
   868G11  C00159440  11.985   8.811  10.482
   868G11  C00059441  12.001   8.673  10.467
   868G11  H00659442  12.085   8.629  10.519
   868G11  C00W59443  11.693   8.853  10.259
   868G11  C01G59444  11.912   8.588  10.404
   868G11  H00559445  11.925   8.481  10.401
   868G11  C01C59446  11.716   8.393  10.346
   868G11  H00259447  11.790   8.347  10.410
   868G11  C01B59448  11.616   8.316  10.275
   868G11  C01D59449  11.600   8.174  10.265
   868G11  H00359450  11.661   8.107  10.324
   868G11  C01E59451  11.508   8.130  10.181
   868G11  H00459452  11.500   8.025  10.161
   868G11  O00259453  11.429   8.212  10.101
   868G11  C01A59454  11.534   8.402  10.208
   868G11  C00V59455  11.598   8.784  10.171
   868G11  C01959456  11.434   8.347  10.119
   868G11  C02E59457  10.891   8.366   9.877
   868G11  C0FX59458  10.784   8.282   9.847
   868G11  C0FW59459  10.667   8.338   9.796
   868G11  C0GB59460  10.796   8.144   9.859
   868G11  C0G359461  10.882   8.501   9.850
   868G11  C07H59462  10.762   8.559   9.811
   868G11  C0GC59463  10.910   8.087   9.917
   868G11  C0G259464  10.689   8.067   9.818
   868G11  C0G159465  10.572   8.120   9.774
   868G11  C0FB59466  10.246   8.008   9.649
   868G11  C0F259467  10.200   8.283   9.675
   868G11  C0FY59468  10.556   8.257   9.769
   868G11  C0F559469  10.293   8.502   9.702
   868G11  C0FV59470  10.650   8.478   9.788
   868G11  C07959471  10.382   8.724   9.746
   868G11  C07A59472  10.475   8.940   9.788
   868G11  C06Y59473  10.679   9.104   9.856
   868G11  C07D59474  10.749   8.695   9.807
   868G11  C01F59475  10.989   8.583   9.888
   868G11  C00A59476  11.215   8.610   9.973
   868G11  C00X59477  11.402   8.784  10.058
   868G11  C00F59478  11.392   9.058  10.030
   868G11  C02959479  11.057   8.945   9.907
   868G11  C02559480  11.255   9.247  10.006
   868G11  C06U59481  10.915   9.138   9.893
   868G11  C02A59482  11.106   9.430  10.016
   868G11  C05Y59483  10.841   9.531   9.995
   868G11  C05Z59484  10.707   9.583   9.990
   868G11  C06059485  10.683   9.709  10.039
   868G11  C06259486  10.555   9.764  10.054
   868G11  C06T59487  10.783   9.191   9.882
   868G11  C06A59488  10.599   9.502   9.959
   868G11  C06Z59489  10.554   9.161   9.851
   868G11  C06Q59490  10.292   9.259   9.849
   868G11  C06859491  10.471   9.556   9.970
   868G11  C06759492  10.445   9.687  10.010
   868G11  C06359493  10.046   9.811  10.056
   868G11  C06C59494   9.907   9.841  10.069
   868G11  C06D59495   9.870   9.956  10.123
   868G11  C06E59496   9.741   9.993  10.155
   868G11  C07Q59497   9.640   9.904  10.133
   868G11  C07P59498   9.673   9.785  10.072
   868G11  C07T59499   9.576   9.698  10.039
   868G11  C07U59500   9.603   9.576   9.979
   868G11  C07V59501   9.499   9.489   9.938
   868G11  C08459502   9.367   9.534   9.957
   868G11  C08C59503   9.341   9.655  10.016
   868G11  C08B59504   9.210   9.693  10.033
   868G11  C08A59505   9.187   9.812  10.094
   868G11  C08959506   9.283   9.894  10.145
   868G11  C08859507   9.250  10.006  10.221
   868G11  C08759508   9.351  10.093  10.261
   868G11  C08659509   9.481  10.065  10.229
   868G11  C08X59510   9.115  10.036  10.245
   868G11  C08T59511   9.011   9.940  10.205
   868G11  C08D59512   9.414   9.858  10.118
   868G11  C08U59513   9.057   9.837  10.131
   868G11  C08V59514   8.955   9.755  10.095
   868G11  C0CY59515   8.974   9.641  10.018
   868G11  C0CX59516   8.863   9.565  10.000
   868G11  C0CW59517   8.889   9.443   9.936
   868G11  C0CV59518   9.022   9.411   9.905
   868G11  C0D459519   9.130   9.491   9.938
   868G11  C0CU59520   9.047   9.285   9.852
   868G11  C0CT59521   8.947   9.194   9.819
   868G11  C0CS59522   8.818   9.230   9.861
   868G11  C0D659523   9.183   9.255   9.839
   868G11  C0EC59524   9.290   9.330   9.875
   868G11  C07X59525   9.421   9.286   9.851
   868G11  C0DL59526   9.207   9.127   9.795
   868G11  C0DK59527   9.334   9.080   9.794
   868G11  C0DN59528   9.325   8.944   9.777
   868G11  C0D859529   9.112   9.021   9.777
   868G11  C08W59530   8.830   9.803  10.140
   868G11  C0CQ59531   8.709   9.731  10.105
   868G11  C09359532   9.104   9.613   9.990
   868G11  C09259533   9.263   9.451   9.927
   868G11  C08559534   9.443   9.738  10.062
   868G11  C07S59535   9.509   9.942  10.163
   868G11  C06F59536   9.709  10.118  10.212
   868G11  C07O59537   9.805   9.751  10.043
   868G11  C07N59538   9.835   9.628   9.988
   868G11  C05D59539   9.967  10.053  10.144
   868G11  C05C59540   9.937  10.173  10.191
   868G11  C05N59541  10.053  10.238  10.209
   868G11  C05M59542  10.397  10.071  10.187
   868G11  C05I59543  10.530   9.886  10.113
   868G11  C06159544  10.792   9.783  10.084
   868G11  C02Q59545  11.023   9.801  10.145
   868G11  C02O59546  11.200   9.939  10.335
   868G11  C03Q59547  10.867  10.078  10.264
   868G11  C03O59548  10.769  10.237  10.417
   868G11  C03L59549  10.882  10.396  10.717
   868G11  C02S59550  11.110  10.162  10.527
   868G11  C02T59551  11.280  10.232  10.736
   868G11  C03K59552  10.973  10.434  10.827
   868G11  C03I59553  11.366  10.275  10.837
   868G11  C03G59554  11.550  10.354  11.034
   868G11  H00D59555  11.616  10.384  11.114
   868G11  C03J59556  11.156  10.503  11.032
   868G11  C03W59557  11.095  10.676  11.252
   868G11  C04I59558  10.872  10.694  11.172
   868G11  C04K59559  10.606  10.776  11.172
   868G11  C04N59560  10.473  10.808  11.159
   868G11  C04X59561  10.258  10.810  11.043
   868G11  C05059562  10.037  10.805  10.924
   868G11  C05W59563  10.167  10.675  10.711
   868G11  C05S59564   9.697  10.639  10.633
   868G11  C05R59565  10.008  10.568  10.474
   868G11  C05O59566  10.044  10.356  10.286
   868G11  C05B59567   9.811  10.208  10.232
   868G11  C05A59568   9.673  10.478  10.445
   868G11  C07R59569   9.583  10.152  10.262
   868G11  C08N59570   9.323  10.205  10.341
   868G11  C08M59571   9.189  10.231  10.376
   868G11  C08L59572   9.159  10.325  10.471
   868G11  C09159573   9.600  10.546  10.553
   868G11  C09K59574   9.294  10.678  10.678
   868G11  H00M59575   9.330  10.773  10.642
   868G11  C08K59576   9.266  10.379  10.546
   868G11  C09J59577   9.161  10.652  10.742
   868G11  C09I59578   9.027  10.708  10.757
   868G11  C09L59579   8.988  10.839  10.812
   868G11  H00N59580   9.060  10.916  10.835
   868G11  C09Q59581   8.856  10.864  10.824
   868G11  H00O59582   8.818  10.963  10.845
   868G11  O00B59583   8.754  10.777  10.788
   868G11  C09G59584   8.784  10.651  10.733
   868G11  C09F59585   8.673  10.570  10.687
   868G11  O00A59586   8.549  10.606  10.728
   868G11  C09P59587   8.441  10.527  10.698
   868G11  H00P59588   8.350  10.580  10.677
   868G11  C09O59589   8.447  10.410  10.610
   868G11  C09D59590   8.570  10.389  10.541
   868G11  C09C59591   8.592  10.312  10.424
   868G11  C09N59592   8.522  10.198  10.358
   868G11  C09T59593   8.411  10.129  10.417
   868G11  C09S59594   8.330  10.198  10.514
   868G11  C0CP59595   8.219  10.108  10.515
   868G11  C0CN59596   8.239   9.989  10.441
   868G11  C0CO59597   8.140   9.896  10.452
   868G11  H01459598   8.146   9.800  10.402
   868G11  C0CZ59599   8.017   9.937  10.513
   868G11  H01559600   7.936   9.866  10.514
   868G11  C0D059601   8.001  10.064  10.587
   868G11  C0G559602   7.888  10.114  10.664
   868G11  H01F59603   7.798  10.054  10.663
   868G11  C0G459604   7.893  10.223  10.735
   868G11  H01G59605   7.807  10.249  10.794
   868G11  O00H59606   8.008  10.297  10.754
   868G11  C0D259607   8.108  10.272  10.666
   868G11  C09V59608   8.221  10.349  10.660
   868G11  H00Q59609   8.225  10.425  10.737
   868G11  C0D159610   8.110  10.150  10.590
   868G11  C09R59611   8.337  10.323  10.585
   868G11  C09H59612   8.927  10.611  10.735
   868G11  C09E59613   8.683  10.467  10.591
   868G11  C09B59614   8.702  10.321  10.352
   868G11  C08Z59615   9.022  10.359  10.487
   868G11  C08O59616   9.080  10.154  10.313
   868G11  C09A59617   8.714  10.231  10.242
   868G11  C08S59618   8.868   9.920  10.207
   868G11  C09959619   8.601  10.146  10.255
   868G11  C09U59620   8.363  10.000  10.363
   868G11  C0BO59621   8.241   9.620  10.129
   868G11  C0CL59622   8.581   9.771  10.143
   868G11  C0D359623   8.732   9.606  10.037
   868G11  C0D559624   8.786   9.354   9.911
   868G11  C0BR59625   8.403   9.461  10.038
   868G11  C0BQ59626   8.275   9.490  10.083
   868G11  C0BL59627   8.008   9.555  10.154
   868G11  C0AF59628   7.822   9.351  10.178
   868G11  C0BH59629   8.109   9.166  10.035
   868G11  C0BG59630   8.131   9.041   9.984
   868G11  C0BD59631   7.918   8.962  10.049
   868G11  C0AG59632   7.746   9.247  10.207
   868G11  C0AI59633   7.514   9.184  10.251
   868G11  C0AV59634   7.302   9.038  10.182
   868G11  C0BB59635   7.588   8.808  10.112
   868G11  O00C59636   7.242   8.848  10.031
   868G11  C0BC59637   7.587   8.703  10.023
   868G11  C0B959638   7.808   8.874  10.040
   868G11  O00E59639   7.942   8.679   9.761
   868G11  C0CA59640   8.058   8.645   9.700
   868G11  O00F59641   8.064   8.561   9.611
   868G11  C0BF59642   8.034   8.945   9.983
   868G11  C0C559643   8.174   8.724   9.727
   868G11  C0C459644   8.302   8.684   9.677
   868G11  H01159645   8.314   8.599   9.611
   868G11  C0C859646   8.255   9.020   9.918
   868G11  C0C259647   8.413   8.767   9.709
   868G11  C0C359648   8.544   8.739   9.664
   868G11  C0DY59649   8.584   8.641   9.573
   868G11  H01659650   8.529   8.562   9.526
   868G11  C0DX59651   8.726   8.660   9.563
   868G11  C0DW59652   8.811   8.582   9.474
   868G11  C0BY59653   8.477   9.090   9.864
   868G11  C0DB59654   8.651   8.822   9.691
   868G11  C0CC59655   8.718   9.147   9.837
   868G11  C0D759656   8.974   9.063   9.771
   868G11  C0DZ59657   8.774   8.771   9.645
   868G11  C0DM59658   9.186   8.903   9.764
   868G11  C0DQ59659   9.038   8.630   9.578
   868G11  C0DV59660   8.949   8.557   9.507
   868G11  C0E059661   8.765   8.481   9.382
   868G11  C0FO59662   8.976   8.291   9.176
   868G11  C0E359663   8.718   8.504   9.249
   868G11  H01759664   8.668   8.590   9.207
   868G11  C0GV59665   8.933   8.305   9.044
   868G11  C0ES59666   9.116   8.299   9.202
   868G11  C0GQ59667   9.243   8.227   8.870
   868G11  C0FJ59668   9.561   8.178   9.038
   868G11  C0ED59669   9.402   8.284   9.255
   868G11  C0ER59670   9.666   8.147   9.454
   868G11  C0EP59671   9.717   8.346   9.543
   868G11  C0E659672   9.351   8.429   9.460
   868G11  C0DE59673   9.403   8.661   9.675
   868G11  C0EA59674   9.781   8.579   9.641
   868G11  C0DF59675   9.478   8.744   9.762
   868G11  C08059676   9.799   8.907   9.719
   868G11  C0DO59677   9.449   8.885   9.775
   868G11  C0DJ59678   9.447   9.163   9.812
   868G11  C07K59679   9.814   9.163   9.802
   868G11  C07W59680   9.524   9.369   9.887
   868G11  C08359681   9.734   9.542   9.954
   868G11  C07J59682   9.919   9.255   9.824
   868G11  C06O59683  10.133   9.431   9.902
   868G11  C06M59684   9.970   9.596   9.971
   878G11  C07159685   6.873   2.655   8.222
   878G11  C07L59686   6.838   2.757   8.127
   878G11  C07M59687   6.708   2.809   8.128
   878G11  C07Y59688   6.669   2.901   8.034
   878G11  C08159689   6.755   2.939   7.931
   878G11  C08259690   6.711   3.044   7.842
   878G11  C0DI59691   6.776   3.105   7.726
   878G11  C0DH59692   6.901   3.079   7.661
   878G11  C0DG59693   6.925   3.185   7.560
   878G11  C0E959694   6.987   3.165   7.427
   878G11  C0E859695   6.902   3.260   7.345
   878G11  C0E759696   6.940   3.320   7.209
   878G11  C0EB59697   7.068   3.295   7.153
   878G11  C0EF59698   7.129   3.376   7.047
   878G11  C0EE59699   7.115   3.513   7.005
   878G11  C0FD59700   7.233   3.585   6.978
   878G11  C0FE59701   7.364   3.546   7.018
   878G11  H01B59702   7.375   3.450   7.066
   878G11  C0FF59703   7.480   3.617   6.981
   878G11  H01A59704   7.580   3.583   7.006
   878G11  C0FG59705   7.468   3.737   6.915
   878G11  H01859706   7.552   3.803   6.903
   878G11  C0FH59707   7.341   3.779   6.868
   878G11  C0FI59708   7.323   3.891   6.787
   878G11  H01959709   7.409   3.943   6.747
   878G11  O00K59710   7.196   3.944   6.753
   878G11  C0FL59711   7.085   3.876   6.803
   878G11  C0FK59712   7.096   3.745   6.863
   878G11  C0FM59713   6.979   3.676   6.901
   878G11  C0FN59714   6.856   3.724   6.854
   878G11  C0FP59715   6.846   3.856   6.808
   878G11  C0GO59716   6.723   3.916   6.788
   878G11  C0GN59717   6.701   4.048   6.761
   878G11  C0GR59718   6.821   4.122   6.741
   878G11  C0GS59719   6.811   4.260   6.723
   878G11  H01Q59720   6.905   4.312   6.721
   878G11  C0GT59721   6.687   4.325   6.715
   878G11  H01O59722   6.696   4.431   6.697
   878G11  C0GU59723   6.570   4.246   6.732
   878G11  H01P59724   6.482   4.309   6.729
   878G11  O00L59725   6.947   4.069   6.751
   878G11  C0GM59726   6.570   4.104   6.759
   878G11  C0GL59727   6.465   4.017   6.777
   878G11  H01R59728   6.366   4.056   6.792
   878G11  C0GK59729   6.482   3.875   6.790
   878G11  C0GP59730   6.402   3.756   6.816
   878G11  C0E259731   6.493   3.640   6.794
   878G11  C0E159732   6.440   3.536   6.880
   878G11  C0DU59733   6.511   3.487   6.994
   878G11  C0DT59734   6.651   3.466   7.014
   878G11  C0E459735   6.750   3.533   6.950
   878G11  C0E559736   6.866   3.487   7.009
   878G11  C0DS59737   6.701   3.410   7.130
   878G11  C0DR59738   6.614   3.386   7.236
   878G11  C0DD59739   6.644   3.339   7.367
   878G11  C0DC59740   6.509   3.344   7.439
   878G11  C0DP59741   6.403   3.395   7.349
   878G11  C0DA59742   6.259   3.424   7.383
   878G11  C0D959743   6.181   3.401   7.513
   878G11  C0CR59744   6.043   3.435   7.522
   878G11  C0C059745   5.971   3.488   7.416
   878G11  C0BZ59746   5.834   3.513   7.407
   878G11  C0C159747   5.772   3.551   7.290
   878G11  C0C759748   5.633   3.572   7.285
   878G11  C0C659749   5.570   3.613   7.168
   878G11  C0C959750   5.434   3.647   7.170
   878G11  C0B859751   5.381   3.711   7.058
   878G11  C0B759752   5.242   3.737   7.052
   878G11  C0B659753   5.166   3.818   6.953
   878G11  C0B559754   5.219   3.939   6.887
   878G11  H00Z59755   5.324   3.963   6.883
   878G11  C0B459756   5.108   4.028   6.881
   878G11  H01059757   5.108   4.136   6.879
   878G11  C0B359758   4.984   3.960   6.914
   878G11  C0AP59759   4.874   4.001   7.008
   878G11  C0AQ59760   4.866   3.888   7.087
   878G11  C0AR59761   4.795   3.891   7.211
   878G11  C0AS59762   4.836   3.800   7.296
   878G11  C0AT59763   4.956   3.728   7.288
   878G11  C0BA59764   5.028   3.725   7.171
   878G11  C0AU59765   5.016   3.672   7.400
   878G11  C0BE59766   5.151   3.638   7.393
   878G11  C0BI59767   5.213   3.592   7.512
   878G11  C0BJ59768   5.141   3.595   7.632
   878G11  C0BK59769   5.207   3.568   7.753
   878G11  C0BW59770   5.338   3.536   7.749
   878G11  C0BV59771   5.410   3.528   7.630
   878G11  C0BU59772   5.547   3.498   7.632
   878G11  C0BX59773   5.622   3.506   7.517
   878G11  C0BT59774   5.610   3.472   7.753
   878G11  C0CD59775   5.746   3.443   7.758
   878G11  C0CB59776   5.829   3.454   7.641
   878G11  C0CE59777   5.806   3.388   7.870
   878G11  C0CK59778   5.728   3.356   7.985
   878G11  C0BS59779   5.593   3.404   7.984
   878G11  C0CJ59780   5.509   3.380   8.099
   878G11  C0BP59781   5.383   3.442   8.105
   878G11  C0CI59782   5.303   3.435   8.221
   878G11  C0CH59783   5.182   3.517   8.221
   878G11  H01259784   5.124   3.511   8.311
   878G11  C0BN59785   5.147   3.590   8.105
   878G11  C0CG59786   5.050   3.682   8.110
   878G11  C0CF59787   5.019   3.749   8.236
   878G11  H01359788   5.088   3.735   8.318
   878G11  O00G59789   4.913   3.838   8.241
   878G11  C0AA59790   4.844   3.855   8.123
   878G11  C0A959791   4.730   3.932   8.136
   878G11  H00U59792   4.717   3.977   8.233
   878G11  C0A859793   4.648   3.952   8.028
   878G11  H00V59794   4.570   4.025   8.043
   878G11  C0A759795   4.675   3.903   7.906
   878G11  C0A659796   4.793   3.820   7.885
   878G11  C0A559797   4.834   3.758   7.766
   878G11  C0A459798   4.768   3.791   7.640
   878G11  C0A359799   4.657   3.874   7.595
   878G11  C0A259800   4.615   3.985   7.671
   878G11  C0A159801   4.496   4.048   7.617
   878G11  C0A059802   4.456   4.101   7.489
   878G11  C09Z59803   4.333   4.174   7.485
   878G11  C09Y59804   4.322   4.272   7.383
   878G11  H00Y59805   4.233   4.333   7.384
   878G11  C09X59806   4.427   4.287   7.293
   878G11  C09W59807   4.419   4.403   7.210
   878G11  H00R59808   4.336   4.472   7.224
   878G11  C0AX59809   4.517   4.432   7.111
   878G11  H00S59810   4.506   4.513   7.041
   878G11  C0AW59811   4.627   4.344   7.102
   878G11  H00T59812   4.694   4.371   7.021
   878G11  C0AN59813   4.634   4.221   7.176
   878G11  C0AO59814   4.724   4.110   7.151
   878G11  C0AM59815   4.538   4.200   7.282
   878G11  C0B259816   4.226   4.152   7.583
   878G11  O00D59817   4.106   4.180   7.566
   878G11  C0B159818   4.263   4.084   7.699
   878G11  H00W59819   4.189   4.091   7.777
   878G11  C0AL59820   4.544   4.098   7.379
   878G11  C0AK59821   4.641   4.001   7.357
   878G11  C0B059822   4.397   4.045   7.716
   878G11  C0AZ59823   4.445   4.000   7.839
   878G11  H00X59824   4.392   3.987   7.932
   878G11  C0AJ59825   4.670   3.896   7.451
   878G11  C0AH59826   4.832   3.744   7.526
   878G11  C0AE59827   4.956   3.681   7.762
   878G11  C0AD59828   5.026   3.661   7.881
   878G11  C0AY59829   4.585   3.961   7.811
   878G11  C0AB59830   4.870   3.797   8.000
   878G11  C0AC59831   4.979   3.715   7.995
   878G11  C0BM59832   5.213   3.559   7.990
   878G11  C0CM59833   5.339   3.338   8.319
   878G11  C09M59834   5.455   3.255   8.299
   878G11  C09859835   5.458   3.125   8.352
   878G11  C08R59836   5.565   3.030   8.374
   878G11  C08Q59837   5.521   2.909   8.435
   878G11  C08P59838   5.576   2.805   8.522
   878G11  C08Y59839   5.480   2.739   8.600
   878G11  C09759840   5.345   2.778   8.603
   878G11  C09659841   5.294   2.757   8.729
   878G11  C09059842   5.374   2.652   8.779
   878G11  C09559843   5.352   2.592   8.904
   878G11  C09459844   5.450   2.503   8.954
   878G11  C08J59845   5.574   2.446   8.911
   878G11  C08I59846   5.647   2.392   9.017
   878G11  C08H59847   5.787   2.396   8.976
   878G11  C08G59848   5.806   2.492   8.864
   878G11  C08F59849   5.911   2.549   8.784
   878G11  C08E59850   6.047   2.509   8.802
   878G11  C05959851   6.094   2.410   8.894
   878G11  C05859852   6.234   2.386   8.907
   878G11  C05759853   6.292   2.276   8.982
   878G11  C05659854   6.203   2.213   9.064
   878G11  C05559855   6.075   2.253   9.093
   878G11  C05459856   6.003   2.142   9.141
   878G11  C05359857   6.090   2.029   9.142
   878G11  C05259858   6.061   1.893   9.164
   878G11  C05159859   5.925   1.848   9.184
   878G11  C05U59860   5.802   1.930   9.170
   878G11  C05T59861   5.770   2.058   9.118
   878G11  C06K59862   5.637   2.087   9.150
   878G11  H00J59863   5.587   2.180   9.126
   878G11  C06L59864   5.583   1.977   9.226
   878G11  H00I59865   5.482   1.971   9.264
   878G11  C05V59866   5.686   1.878   9.223
   878G11  C06J59867   5.676   1.755   9.279
   878G11  H00K59868   5.580   1.724   9.318
   878G11  C05X59869   5.783   1.663   9.270
   878G11  C06I59870   5.776   1.520   9.319
   878G11  H00L59871   5.687   1.485   9.371
   878G11  C04Z59872   5.876   1.425   9.296
   878G11  C06H59873   5.865   1.283   9.336
   878G11  H00H59874   5.777   1.239   9.380
   878G11  C04Y59875   5.976   1.195   9.300
   878G11  C06G59876   5.958   1.057   9.329
   878G11  O00959877   5.860   1.009   9.381
   878G11  O00859878   6.056   0.975   9.285
   878G11  C04P59879   6.168   1.010   9.217
   878G11  C04J59880   6.274   0.918   9.178
   878G11  C04Q59881   6.282   0.780   9.193
   878G11  H00E59882   6.194   0.730   9.231
   878G11  C04M59883   6.399   0.709   9.151
   878G11  C04R59884   6.418   0.566   9.163
   878G11  H00F59885   6.361   0.495   9.221
   878G11  C04S59886   6.523   0.504   9.109
   878G11  H00G59887   6.531   0.397   9.118
   878G11  O00759888   6.615   0.566   9.037
   878G11  C03V59889   6.616   0.707   9.038
   878G11  C03U59890   6.722   0.778   8.987
   878G11  O00659891   6.815   0.704   8.914
   878G11  C03F59892   6.924   0.759   8.859
   878G11  C03E59893   6.940   0.899   8.860
   878G11  C03D59894   6.841   0.981   8.923
   878G11  C03C59895   6.855   1.117   8.926
   878G11  C03B59896   6.970   1.170   8.872
   878G11  C03A59897   6.985   1.307   8.872
   878G11  C03959898   6.885   1.392   8.924
   878G11  C03859899   6.946   1.524   8.891
   878G11  C03759900   7.077   1.494   8.850
   878G11  C03659901   7.158   1.597   8.816
   878G11  C02R59902   7.280   1.594   8.748
   878G11  C03559903   7.296   1.729   8.713
   878G11  C03R59904   7.198   1.812   8.749
   878G11  C03S59905   7.165   1.932   8.687
   878G11  C04959906   7.040   1.973   8.698
   878G11  C04859907   6.954   1.899   8.776
   878G11  C03P59908   6.974   1.767   8.837
   878G11  C04759909   6.841   1.969   8.805
   878G11  C04659910   6.740   1.931   8.899
   878G11  C04559911   6.716   1.812   8.968
   878G11  C03T59912   6.771   1.685   8.958
   878G11  C04459913   6.699   1.598   9.036
   878G11  C04359914   6.594   1.669   9.101
   878G11  C04259915   6.480   1.588   9.114
   878G11  C04159916   6.534   1.453   9.084
   878G11  C04059917   6.457   1.338   9.069
   878G11  C03Z59918   6.505   1.200   9.059
   878G11  C04H59919   6.396   1.122   9.101
   878G11  C04G59920   6.284   1.199   9.127
   878G11  C03N59921   6.626   1.128   9.018
   878G11  C03Y59922   6.621   0.985   9.032
   878G11  C03X59923   6.508   0.912   9.084
   878G11  C04F59924   6.318   1.333   9.110
   878G11  C04E59925   6.221   1.429   9.149
   878G11  C04O59926   6.095   1.376   9.196
   878G11  C04D59927   6.233   1.570   9.141
   878G11  C04V59928   6.126   1.654   9.175
   878G11  C04W59929   5.999   1.605   9.205
   878G11  C04C59930   6.345   1.647   9.114
   878G11  C04L59931   6.302   1.785   9.132
   878G11  C04U59932   6.389   1.900   9.127
   878G11  C05Q59933   6.341   2.025   9.097
   878G11  C05P59934   6.437   2.096   9.024
   878G11  C04T59935   6.544   2.019   8.997
   878G11  C04B59936   6.513   1.897   9.062
   878G11  C03M59937   6.677   1.452   9.040
   878G11  C04A59938   6.601   1.795   9.046
   878G11  C05H59939   6.657   2.036   8.917
   878G11  C05G59940   6.700   2.147   8.832
   878G11  C05F59941   6.639   2.269   8.821
   878G11  C05E59942   6.664   2.364   8.719
   878G11  C05L59943   6.763   2.382   8.608
   878G11  C05K59944   6.877   2.300   8.593
   878G11  C05J59945   6.900   2.176   8.662
   878G11  C06659946   6.965   2.342   8.496
   878G11  C06559947   6.939   2.452   8.406
   878G11  C06459948   6.816   2.522   8.416
   878G11  C06N59949   7.029   2.487   8.303
   878G11  C06959950   7.150   2.417   8.287
   878G11  C06P59951   7.243   2.459   8.188
   878G11  C06R59952   7.360   2.387   8.170
   878G11  C06B59953   7.388   2.280   8.249
   878G11  C06S59954   7.497   2.203   8.226
   878G11  C02G59955   7.527   2.091   8.305
   878G11  C02F59956   7.634   2.004   8.276
   878G11  C02759957   7.711   2.028   8.165
   878G11  C02659958   7.803   1.936   8.125
   878G11  C00E59959   7.878   1.961   8.005
   878G11  C00D59960   7.981   1.869   7.972
   878G11  C00C59961   8.042   1.887   7.851
   878G11  C00B59962   8.009   1.981   7.757
   878G11  C01559963   7.910   2.073   7.795
   878G11  C07F59964   7.865   2.168   7.704
   878G11  C07E59965   7.775   2.266   7.748
   878G11  C06W59966   7.713   2.253   7.871
   878G11  C06V59967   7.752   2.157   7.958
   878G11  C06X59968   7.618   2.347   7.908
   878G11  C07B59969   7.583   2.449   7.819
   878G11  C07C59970   7.633   2.454   7.690
   878G11  C0FU59971   7.588   2.545   7.595
   878G11  C0F759972   7.638   2.541   7.467
   878G11  C0F659973   7.588   2.634   7.371
   878G11  C0F859974   7.635   2.634   7.239
   878G11  C0F959975   7.581   2.716   7.144
   878G11  C0FA59976   7.625   2.705   7.013
   878G11  C0FZ59977   7.717   2.611   6.977
   878G11  C0G059978   7.761   2.597   6.845
   878G11  C0GD59979   7.716   2.686   6.747
   878G11  C0FC59980   7.626   2.786   6.775
   878G11  C0GH59981   7.575   2.875   6.678
   878G11  C0EY59982   7.494   2.980   6.717
   878G11  C0EX59983   7.453   3.077   6.625
   878G11  C0EW59984   7.381   3.187   6.665
   878G11  C0FR59985   7.343   3.288   6.575
   878G11  H01D59986   7.290   3.379   6.598
   878G11  C0FS59987   7.377   3.283   6.438
   878G11  H01C59988   7.358   3.363   6.369
   878G11  C0GJ59989   7.450   3.168   6.397
   878G11  H01N59990   7.481   3.157   6.294
   878G11  C0EV59991   7.347   3.197   6.800
   878G11  C0FT59992   7.271   3.305   6.848
   878G11  H01E59993   7.239   3.392   6.793
   878G11  C0EU59994   7.375   3.095   6.892
   878G11  C0ET59995   7.324   3.092   7.023
   878G11  C0EI59996   7.348   2.995   7.117
   878G11  C0F159997   7.443   2.900   7.080
   878G11  C0F059998   7.488   2.892   6.942
   878G11  C0EH59999   7.284   3.001   7.245
   878G11  C0EG60000   7.171   3.086   7.277
   878G11  C0EJ60001   7.330   2.912   7.339
   878G11  C0F360002   7.435   2.819   7.307
   878G11  C0EK60003   7.279   2.909   7.472
   878G11  C0EL60004   7.165   2.986   7.499
   878G11  C0EM60005   7.114   2.958   7.631
   878G11  C0EN60006   7.177   2.878   7.723
   878G11  C07I60007   7.111   2.861   7.837
   878G11  C07460008   7.152   2.767   7.935
   878G11  C07360009   7.059   2.737   8.032
   878G11  C07260010   7.087   2.629   8.117
   878G11  C07560011   7.259   2.689   7.908
   878G11  C07660012   7.331   2.712   7.788
   878G11  C07860013   7.435   2.631   7.755
   878G11  C07G60014   7.293   2.591   7.997
   878G11  C07060015   7.411   2.517   7.968
   878G11  C07Z60016   6.981   2.906   7.823
   878G11  C07760017   7.293   2.808   7.693
   878G11  C0EO60018   7.340   2.819   7.564
   878G11  C0F460019   7.443   2.735   7.537
   878G11  C0EQ60020   7.231   3.185   7.055
   878G11  C0FQ60021   7.484   3.065   6.487
   878G11  C0GI60022   7.564   2.953   6.454
   878G11  H01L60023   7.592   2.944   6.350
   878G11  C0EZ60024   7.450   2.990   6.847
   878G11  C0GG60025   7.619   2.861   6.544
   878G11  C0GF60026   7.709   2.758   6.512
   878G11  H01M60027   7.764   2.753   6.419
   878G11  C0GE60028   7.749   2.670   6.609
   878G11  H01K60029   7.824   2.598   6.581
   878G11  O00J60030   7.841   2.496   6.810
   878G11  C0GA60031   7.907   2.423   6.905
   878G11  C0G960032   8.000   2.329   6.869
   878G11  H01H60033   8.034   2.309   6.768
   878G11  C0G860034   8.072   2.256   6.963
   878G11  C0G760035   8.183   2.175   6.933
   878G11  H01I60036   8.202   2.160   6.827
   878G11  O00I60037   8.271   2.124   7.028
   878G11  C0G660038   8.224   2.130   7.161
   878G11  H01J60039   8.284   2.080   7.235
   878G11  C02D60040   8.100   2.198   7.192
   878G11  C02C60041   8.039   2.186   7.319
   878G11  C01760042   8.069   2.076   7.407
   878G11  C01660043   8.021   2.076   7.540
   878G11  O00160044   8.148   1.974   7.369
   878G11  C01860045   8.178   1.867   7.447
   878G11  C00960046   8.151   1.875   7.590
   878G11  C00860047   8.186   1.777   7.690
   878G11  C00760048   8.250   1.645   7.686
   878G11  C00660049   8.288   1.584   7.563
   878G11  C00560050   8.334   1.451   7.552
   878G11  C00460051   8.354   1.347   7.658
   878G11  C00360052   8.287   1.334   7.789
   878G11  C00260053   8.295   1.211   7.862
   878G11  C00P60054   8.218   1.190   7.980
   878G11  C00O60055   8.222   1.067   8.042
   878G11  C00N60056   8.133   1.039   8.148
   878G11  C01060057   8.098   0.909   8.182
   878G11  C01160058   7.995   0.880   8.269
   878G11  C01Q60059   7.946   0.748   8.275
   878G11  C01U60060   7.993   0.640   8.192
   878G11  C01260061   8.108   0.675   8.115
   878G11  H00060062   8.161   0.610   8.048
   878G11  C01V60063   7.925   0.513   8.203
   878G11  H00760064   7.954   0.437   8.132
   878G11  O00560065   7.809   0.500   8.277
   878G11  C01W60066   7.773   0.599   8.364
   878G11  C03160067   7.670   0.569   8.454
   878G11  C03260068   7.638   0.669   8.549
   878G11  H00A60069   7.556   0.655   8.619
   878G11  C03360070   7.700   0.790   8.546
   878G11  H00B60071   7.676   0.858   8.627
   878G11  C01O60072   7.793   0.823   8.447
   878G11  C01N60073   7.830   0.952   8.424
   878G11  C01M60074   7.768   1.069   8.494
   878G11  C01L60075   7.639   1.108   8.556
   878G11  C01K60076   7.646   1.243   8.576
   878G11  C01Y60077   7.547   1.327   8.618
   878G11  C02I60078   7.431   1.264   8.667
   878G11  C02N60079   7.336   1.350   8.721
   878G11  C02M60080   7.220   1.291   8.779
   878G11  C02L60081   7.192   1.152   8.767
   878G11  C02K60082   7.284   1.070   8.697
   878G11  C02U60083   7.250   0.939   8.667
   878G11  C02V60084   7.148   0.880   8.736
   878G11  C03H60085   7.134   0.738   8.737
   878G11  H00C60086   7.207   0.679   8.684
   878G11  C02W60087   7.316   0.873   8.565
   878G11  C02X60088   7.432   0.934   8.516
   878G11  C02Y60089   7.452   0.870   8.392
   878G11  H00860090   7.528   0.892   8.318
   878G11  C02Z60091   7.341   0.776   8.366
   878G11  O00460092   7.324   0.708   8.269
   878G11  O00360093   7.264   0.778   8.481
   878G11  C02J60094   7.411   1.123   8.653
   878G11  C01Z60095   7.571   1.463   8.597
   878G11  C02060096   7.680   1.509   8.526
   878G11  C01I60097   7.779   1.424   8.487
   878G11  C01H60098   7.871   1.451   8.389
   878G11  C00K60099   7.946   1.352   8.333
   878G11  C01S60100   7.924   1.222   8.377
   878G11  C01460101   7.984   1.116   8.317
   878G11  C00J60102   8.024   1.379   8.225
   878G11  C00I60103   8.027   1.504   8.168
   878G11  C00H60104   7.949   1.607   8.224
   878G11  C00G60105   7.929   1.731   8.159
   878G11  C00S60106   8.092   1.526   8.051
   878G11  C00T60107   8.081   1.655   8.003
   878G11  C00U60108   8.146   1.672   7.882
   878G11  C00R60109   8.150   1.418   7.978
   878G11  C00L60110   8.090   1.270   8.165
   878G11  C02860111   7.868   1.580   8.332
   878G11  C02360112   7.772   1.674   8.375
   878G11  C02460113   7.758   1.797   8.312
   878G11  C02160114   7.680   1.639   8.472
   878G11  C02260115   7.579   1.728   8.503
   878G11  C02H60116   7.566   1.856   8.444
   878G11  C03060117   7.465   1.941   8.479
   878G11  C03460118   7.377   1.904   8.574
   878G11  C02P60119   7.484   1.682   8.591
   878G11  C02B60120   7.475   1.546   8.636
   878G11  C01J60121   7.766   1.293   8.532
   878G11  C01X60122   7.505   1.046   8.569
   878G11  C01T60123   7.843   1.191   8.487
   878G11  H00960124   7.615   0.477   8.441
   878G11  C01P60125   7.840   0.725   8.361
   878G11  C01R60126   7.937   0.985   8.341
   878G11  C00Z60127   8.161   0.802   8.114
   878G11  O00060128   8.261   0.827   8.025
   878G11  C00M60129   8.080   1.140   8.220
   878G11  C00Y60130   8.293   0.959   7.984
   878G11  C01360131   8.380   0.986   7.883
   878G11  H00160132   8.440   0.901   7.857
   878G11  C00Q60133   8.151   1.291   8.039
   878G11  C00160134   8.381   1.111   7.816
   878G11  C00060135   8.467   1.127   7.706
   878G11  H00660136   8.551   1.065   7.681
   878G11  C00W60137   8.208   1.437   7.852
   878G11  C01G60138   8.445   1.243   7.626
   878G11  H00560139   8.507   1.252   7.538
   878G11  C01C60140   8.375   1.433   7.414
   878G11  H00260141   8.408   1.341   7.368
   878G11  C01B60142   8.354   1.548   7.348
   878G11  C01D60143   8.379   1.572   7.215
   878G11  H00360144   8.427   1.489   7.165
   878G11  C01E60145   8.328   1.687   7.171
   878G11  H00460146   8.325   1.699   7.063
   878G11  O00260147   8.274   1.788   7.249
   878G11  C01A60148   8.294   1.642   7.436
   878G11  C00V60149   8.208   1.574   7.802
   878G11  C01960150   8.249   1.765   7.384
   878G11  C02E60151   7.934   2.268   7.355
   878G11  C0FX60152   7.881   2.357   7.261
   878G11  C0FW60153   7.775   2.444   7.299
   878G11  C0GB60154   7.927   2.346   7.131
   878G11  C0G360155   7.880   2.267   7.485
   878G11  C07H60156   7.782   2.361   7.524
   878G11  C0GC60157   8.036   2.269   7.094
   878G11  C0G260158   7.864   2.433   7.039
   878G11  C0G160159   7.764   2.524   7.074
   878G11  C0FB60160   7.577   2.789   6.909
   878G11  C0F260161   7.481   2.808   7.178
   878G11  C0FY60162   7.725   2.534   7.208
   878G11  C0F560163   7.489   2.730   7.405
   878G11  C0FV60164   7.730   2.446   7.429
   878G11  C07960165   7.495   2.637   7.630
   878G11  C07A60166   7.481   2.536   7.848
   878G11  C06Y60167   7.550   2.332   8.026
   878G11  C07D60168   7.736   2.364   7.657
   878G11  C01F60169   7.925   2.170   7.576
   878G11  C00A60170   8.064   1.979   7.632
   878G11  C00X60171   8.138   1.791   7.820
   878G11  C00F60172   8.003   1.756   8.049
   878G11  C02960173   7.848   2.062   7.920
   878G11  C02560174   7.838   1.824   8.203
   878G11  C06U60175   7.685   2.143   8.084
   878G11  C02A60176   7.650   1.890   8.346
   878G11  C05Y60177   7.443   2.060   8.410
   878G11  C05Z60178   7.327   2.135   8.435
   878G11  C06060179   7.234   2.094   8.531
   878G11  C06260180   7.110   2.157   8.549
   878G11  C06T60181   7.578   2.226   8.113
   878G11  C06A60182   7.303   2.248   8.353
   878G11  C06Z60183   7.442   2.413   8.057
   878G11  C06Q60184   7.210   2.558   8.098
   878G11  C06860185   7.175   2.314   8.373
   878G11  C06760186   7.085   2.272   8.472
   878G11  C06360187   6.730   2.488   8.524
   878G11  C06C60188   6.607   2.555   8.526
   878G11  C06D60189   6.511   2.530   8.619
   878G11  C06E60190   6.377   2.576   8.629
   878G11  C07Q60191   6.342   2.656   8.532
   878G11  C07P60192   6.437   2.699   8.433
   878G11  C07T60193   6.402   2.793   8.343
   878G11  C07U60194   6.495   2.829   8.243
   878G11  C07V60195   6.454   2.920   8.150
   878G11  C08460196   6.326   2.972   8.158
   878G11  C08C60197   6.240   2.948   8.262
   878G11  C08B60198   6.117   3.011   8.268
   878G11  C08A60199   6.029   2.968   8.366
   878G11  C08960200   6.053   2.860   8.452
   878G11  C08860201   5.950   2.810   8.527
   878G11  C08760202   5.976   2.703   8.610
   878G11  C08660203   6.111   2.661   8.616
   878G11  C08X60204   5.815   2.857   8.516
   878G11  C08T60205   5.793   2.991   8.447
   878G11  C08D60206   6.179   2.809   8.448
   878G11  C08U60207   5.902   3.034   8.374
   878G11  C08V60208   5.873   3.130   8.281
   878G11  C0CY60209   5.960   3.164   8.180
   878G11  C0CX60210   5.906   3.247   8.082
   878G11  C0CW60211   5.992   3.274   7.970
   878G11  C0CV60212   6.119   3.218   7.964
   878G11  C0D460213   6.155   3.126   8.065
   878G11  C0CU60214   6.194   3.243   7.852
   878G11  C0CT60215   6.150   3.319   7.747
   878G11  C0CS60216   6.023   3.373   7.754
   878G11  C0D660217   6.314   3.188   7.858
   878G11  C0EC60218   6.363   3.107   7.961
   878G11  C07X60219   6.495   3.053   7.958
   878G11  C0DL60220   6.399   3.219   7.754
   878G11  C0DK60221   6.531   3.180   7.765
   878G11  C0DN60222   6.588   3.241   7.655
   878G11  C0D860223   6.367   3.299   7.645
   878G11  C08W60224   5.744   3.172   8.299
   878G11  C0CQ60225   5.684   3.251   8.191
   878G11  C09360226   6.075   3.100   8.172
   878G11  C09260227   6.281   3.066   8.064
   878G11  C08560228   6.274   2.854   8.353
   878G11  C07S60229   6.212   2.707   8.533
   878G11  C06F60230   6.280   2.534   8.719
   878G11  C07O60231   6.570   2.649   8.431
   878G11  C07N60232   6.663   2.679   8.330
   878G11  C05D60233   6.552   2.442   8.717
   878G11  C05C60234   6.457   2.407   8.814
   878G11  C05N60235   6.506   2.293   8.875
   878G11  C05M60236   6.816   2.109   8.765
   878G11  C05I60237   7.018   2.103   8.639
   878G11  C06160238   7.264   1.979   8.602
   878G11  C02Q60239   7.391   1.774   8.625
   878G11  C02O60240   7.364   1.490   8.700
   878G11  C03Q60241   7.106   1.723   8.801
   878G11  C03O60242   6.894   1.661   8.897
   878G11  C03L60243   6.763   1.348   8.985
   878G11  C02S60244   7.109   1.363   8.830
   878G11  C02T60245   7.071   1.096   8.813
   878G11  C03K60246   6.746   1.198   8.980
   878G11  C03I60247   7.054   0.958   8.804
   878G11  C03G60248   7.020   0.676   8.798
   878G11  H00D60249   7.003   0.569   8.800
   878G11  C03J60250   6.734   0.919   8.988
   878G11  C03W60251   6.506   0.779   9.096
   878G11  C04I60252   6.393   0.982   9.129
   878G11  C04K60253   6.179   1.145   9.194
   878G11  C04N60254   6.086   1.240   9.230
   878G11  C04X60255   5.990   1.469   9.230
   878G11  C05060256   5.900   1.708   9.217
   878G11  C05W60257   6.158   1.789   9.155
   878G11  C05S60258   5.869   2.166   9.092
   878G11  C05R60259   6.215   2.083   9.105
   878G11  C05O60260   6.424   2.225   8.965
   878G11  C05B60261   6.322   2.451   8.818
   878G11  C05A60262   6.018   2.333   8.991
   878G11  C07R60263   6.145   2.571   8.720
   878G11  C08N60264   5.873   2.645   8.686
   878G11  C08M60265   5.740   2.688   8.667
   878G11  C08L60266   5.640   2.625   8.742
   878G11  C09160267   5.881   2.296   9.017
   878G11  C09K60268   5.599   2.464   9.131
   878G11  H00M60269   5.645   2.472   9.229
   878G11  C08K60270   5.672   2.520   8.830
   878G11  C09J60271   5.477   2.525   9.091
   878G11  C09I60272   5.376   2.617   9.128
   878G11  C09L60273   5.350   2.672   9.256
   878G11  H00N60274   5.395   2.630   9.345
   878G11  C09Q60275   5.256   2.768   9.262
   878G11  H00O60276   5.221   2.795   9.361
   878G11  O00B60277   5.174   2.808   9.156
   878G11  C09G60278   5.206   2.768   9.026
   878G11  C09F60279   5.152   2.844   8.927
   878G11  O00A60280   5.066   2.942   8.975
   878G11  C09P60281   4.997   3.006   8.878
   878G11  H00P60282   4.892   3.032   8.879
   878G11  C09O60283   5.076   3.065   8.774
   878G11  C09D60284   5.165   2.967   8.712
   878G11  C09C60285   5.237   2.982   8.587
   878G11  C09N60286   5.246   3.092   8.485
   878G11  C09T60287   5.209   3.225   8.513
   878G11  C09S60288   5.139   3.269   8.633
   878G11  C0CP60289   5.160   3.409   8.629
   878G11  C0CN60290   5.236   3.458   8.523
   878G11  C0CO60291   5.259   3.593   8.515
   878G11  H01460292   5.325   3.639   8.444
   878G11  C0CZ60293   5.204   3.672   8.612
   878G11  H01560294   5.236   3.775   8.615
   878G11  C0D060295   5.124   3.627   8.720
   878G11  C0G560296   5.061   3.711   8.828
   878G11  H01F60297   5.061   3.819   8.831
   878G11  C0G460298   4.991   3.650   8.922
   878G11  H01G60299   4.941   3.711   8.996
   878G11  O00H60300   4.987   3.509   8.946
   878G11  C0D260301   5.037   3.437   8.843
   878G11  C09V60302   5.014   3.295   8.848
   878G11  H00Q60303   4.962   3.256   8.934
   878G11  C0D160304   5.109   3.488   8.732
   878G11  C09R60305   5.072   3.206   8.748
   878G11  C09H60306   5.304   2.660   9.013
   878G11  C09E60307   5.202   2.847   8.791
   878G11  C09B60308   5.311   2.887   8.530
   878G11  C08Z60309   5.506   2.672   8.716
   878G11  C08O60310   5.706   2.791   8.572
   878G11  C09A60311   5.381   2.922   8.413
   878G11  C08S60312   5.691   3.081   8.402
   878G11  C09960313   5.347   3.052   8.393
   878G11  C09U60314   5.263   3.341   8.439
   878G11  C0BO60315   5.334   3.497   7.990
   878G11  C0CL60316   5.550   3.295   8.197
   878G11  C0D360317   5.775   3.292   8.092
   878G11  C0D560318   5.940   3.343   7.864
   878G11  C0BR60319   5.537   3.453   7.867
   878G11  C0BQ60320   5.406   3.497   7.869
   878G11  C0BL60321   5.148   3.601   7.875
   878G11  C0AF60322   5.015   3.647   7.641
   878G11  C0BH60323   5.347   3.559   7.515
   878G11  C0BG60324   5.422   3.571   7.398
   878G11  C0BD60325   5.227   3.646   7.275
   878G11  C0AG60326   4.954   3.680   7.520
   878G11  C0AI60327   4.772   3.804   7.418
   878G11  C0AV60328   4.722   4.001   7.244
   878G11  C0BB60329   4.968   3.793   7.067
   878G11  O00C60330   4.819   4.118   7.047
   878G11  C0BC60331   5.024   3.827   6.943
   878G11  C0B960332   5.167   3.697   7.161
   878G11  O00E60333   5.465   3.751   6.954
   878G11  C0CA60334   5.587   3.693   6.934
   878G11  O00F60335   5.649   3.703   6.826
   878G11  C0BF60336   5.363   3.620   7.284
   878G11  C0C560337   5.642   3.637   7.054
   878G11  C0C460338   5.779   3.604   7.045
   878G11  H01160339   5.842   3.622   6.959
   878G11  C0C860340   5.559   3.549   7.401
   878G11  C0C260341   5.838   3.563   7.168
   878G11  C0C360342   5.975   3.539   7.186
   878G11  C0DY60343   6.062   3.542   7.081
   878G11  H01660344   6.048   3.544   6.974
   878G11  C0DX60345   6.186   3.508   7.142
   878G11  C0DW60346   6.303   3.523   7.063
   878G11  C0BY60347   5.758   3.488   7.521
   878G11  C0DB60348   6.043   3.514   7.300
   878G11  C0CC60349   5.969   3.429   7.640
   878G11  C0D760350   6.234   3.343   7.634
   878G11  C0DZ60351   6.176   3.478   7.278
   878G11  C0DM60352   6.490   3.312   7.578
   878G11  C0DQ60353   6.477   3.427   7.229
   878G11  C0DV60354   6.430   3.474   7.106
   878G11  C0E060355   6.312   3.577   6.931
   878G11  C0FO60356   6.622   3.689   6.799
   878G11  C0E360357   6.284   3.715   6.890
   878G11  H01760358   6.214   3.781   6.939
   878G11  C0GV60359   6.613   3.829   6.779
   878G11  C0ES60360   6.742   3.640   6.854
   878G11  C0GQ60361   6.960   3.935   6.782
   878G11  C0FJ60362   7.225   3.697   6.901
   878G11  C0ED60363   6.990   3.556   6.972
   878G11  C0ER60364   7.216   3.294   6.979
   878G11  C0EP60365   7.152   3.179   7.163
   878G11  C0E660366   6.844   3.399   7.124
   878G11  C0DE60367   6.779   3.296   7.414
   878G11  C0EA60368   7.104   3.075   7.402
   878G11  C0DF60369   6.811   3.258   7.551
   878G11  C08060370   6.990   2.983   7.700
   878G11  C0DO60371   6.721   3.209   7.649
   878G11  C0DJ60372   6.582   3.092   7.861
   878G11  C07K60373   6.889   2.885   7.933
   878G11  C07W60374   6.537   2.958   8.049
   878G11  C08360375   6.623   2.775   8.233
   878G11  C07J60376   6.928   2.795   8.031
   878G11  C06O60377   6.994   2.592   8.218
   878G11  C06M60378   6.788   2.619   8.326
   888G11  C07160379   2.761   9.106   9.733
   888G11  C07L60380   2.819   9.006   9.818
   888G11  C07M60381   2.911   9.037   9.915
   888G11  C07Y60382   2.963   8.934   9.999
   888G11  C08160383   2.928   8.798   9.977
   888G11  C08260384   2.999   8.701  10.055
   888G11  C0DI60385   2.987   8.553  10.061
   888G11  C0DH60386   2.890   8.462  10.013
   888G11  C0DG60387   2.927   8.329  10.041
   888G11  C0E960388   2.855   8.204  10.064
   888G11  C0E860389   2.941   8.137  10.163
   888G11  C0E760390   2.931   7.998  10.206
   888G11  C0EB60391   2.818   7.916  10.160
   888G11  C0EF60392   2.803   7.773  10.183
   888G11  C0EE60393   2.895   7.668  10.172
   888G11  C0FD60394   2.875   7.560  10.080
   888G11  C0FE60395   2.770   7.543   9.978
   888G11  H01B60396   2.702   7.622   9.949
   888G11  C0FF60397   2.736   7.419   9.923
   888G11  H01A60398   2.653   7.406   9.856
   888G11  C0FG60399   2.826   7.315   9.948
   888G11  H01860400   2.807   7.226   9.890
   888G11  C0FH60401   2.953   7.337  10.012
   888G11  C0FI60402   3.061   7.245  10.014
   888G11  H01960403   3.053   7.150   9.963
   888G11  O00K60404   3.180   7.270  10.080
   888G11  C0FL60405   3.177   7.372  10.173
   888G11  C0FK60406   3.076   7.468  10.175
   888G11  C0FM60407   3.089   7.573  10.272
   888G11  C0FN60408   3.179   7.560  10.378
   888G11  C0FP60409   3.280   7.462  10.371
   888G11  C0GO60410   3.381   7.443  10.466
   888G11  C0GN60411   3.495   7.368  10.452
   888G11  C0GR60412   3.496   7.287  10.334
   888G11  C0GS60413   3.604   7.213  10.304
   888G11  H01Q60414   3.601   7.150  10.217
   888G11  C0GT60415   3.720   7.228  10.386
   888G11  H01O60416   3.813   7.181  10.357
   888G11  C0GU60417   3.721   7.312  10.498
   888G11  H01P60418   3.807   7.310  10.564
   888G11  O00L60419   3.379   7.269  10.264
   888G11  C0GM60420   3.609   7.386  10.534
   888G11  C0GL60421   3.595   7.481  10.641
   888G11  H01R60422   3.683   7.493  10.702
   888G11  C0GK60423   3.479   7.550  10.656
   888G11  C0GP60424   3.453   7.667  10.736
   888G11  C0E260425   3.311   7.700  10.706
   888G11  C0E160426   3.297   7.843  10.705
   888G11  C0DU60427   3.240   7.929  10.602
   888G11  C0DT60428   3.151   7.902  10.498
   888G11  C0E460429   3.131   7.776  10.449
   888G11  C0E560430   3.050   7.793  10.335
   888G11  C0DS60431   3.108   7.993  10.406
   888G11  C0DR60432   3.165   8.123  10.416
   888G11  C0DD60433   3.144   8.227  10.330
   888G11  C0DC60434   3.247   8.328  10.374
   888G11  C0DP60435   3.330   8.285  10.486
   888G11  C0DA60436   3.421   8.356  10.572
   888G11  C0D960437   3.444   8.503  10.589
   888G11  C0CR60438   3.520   8.551  10.697
   888G11  C0C060439   3.586   8.472  10.784
   888G11  C0BZ60440   3.662   8.507  10.891
   888G11  C0C160441   3.739   8.413  10.966
   888G11  C0C760442   3.806   8.453  11.084
   888G11  C0C660443   3.881   8.361  11.161
   888G11  C0C960444   3.937   8.404  11.277
   888G11  C0B860445   4.006   8.315  11.360
   888G11  C0B760446   4.061   8.351  11.486
   888G11  C0B660447   4.121   8.269  11.589
   888G11  C0B560448   4.080   8.128  11.617
   888G11  H00Z60449   4.027   8.073  11.541
   888G11  C0B460450   4.107   8.113  11.763
   888G11  H01060451   4.076   8.034  11.830
   888G11  C0B360452   4.160   8.233  11.808
   888G11  C0AP60453   4.158   8.323  11.924
   888G11  C0AQ60454   4.156   8.454  11.866
   888G11  C0AR60455   4.105   8.576  11.927
   888G11  C0AS60456   4.076   8.672  11.835
   888G11  C0AT60457   4.058   8.648  11.704
   888G11  C0BA60458   4.092   8.531  11.644
   888G11  C0AU60459   3.983   8.737  11.627
   888G11  C0BE60460   3.945   8.704  11.497
   888G11  C0BI60461   3.865   8.791  11.422
   888G11  C0BJ60462   3.828   8.909  11.481
   888G11  C0BK60463   3.748   8.997  11.409
   888G11  C0BW60464   3.716   8.971  11.275
   888G11  C0BV60465   3.743   8.840  11.222
   888G11  C0BU60466   3.695   8.807  11.101
   888G11  C0BX60467   3.721   8.680  11.053
   888G11  C0BT60468   3.635   8.900  11.023
   888G11  C0CD60469   3.592   8.864  10.896
   888G11  C0CB60470   3.590   8.732  10.856
   888G11  C0CE60471   3.537   8.957  10.813
   888G11  C0CK60472   3.526   9.091  10.855
   888G11  C0BS60473   3.558   9.127  10.990
   888G11  C0CJ60474   3.538   9.261  11.034
   888G11  C0BP60475   3.559   9.287  11.172
   888G11  C0CI60476   3.518   9.412  11.232
   888G11  C0CH60477   3.542   9.426  11.376
   888G11  H01260478   3.523   9.525  11.415
   888G11  C0BN60479   3.577   9.314  11.458
   888G11  C0CG60480   3.593   9.331  11.598
   888G11  C0CF60481   3.544   9.455  11.670
   888G11  H01360482   3.480   9.522  11.614
   888G11  O00G60483   3.581   9.477  11.801
   888G11  C0AA60484   3.646   9.376  11.871
   888G11  C0A960485   3.671   9.410  12.002
   888G11  H00U60486   3.652   9.503  12.052
   888G11  C0A860487   3.722   9.306  12.084
   888G11  H00V60488   3.735   9.322  12.190
   888G11  C0A760489   3.741   9.177  12.032
   888G11  C0A660490   3.742   9.159  11.888
   888G11  C0A560491   3.801   9.051  11.824
   888G11  C0A460492   3.886   8.962  11.896
   888G11  C0A360493   3.917   8.927  12.034
   888G11  C0A260494   3.826   8.961  12.131
   888G11  C0A160495   3.798   8.882  12.246
   888G11  C0A060496   3.836   8.750  12.298
   888G11  C09Z60497   3.783   8.727  12.427
   888G11  C09Y60498   3.811   8.608  12.493
   888G11  H00Y60499   3.772   8.594  12.593
   888G11  C09X60500   3.880   8.503  12.428
   888G11  C09W60501   3.904   8.388  12.503
   888G11  H00R60502   3.869   8.382  12.604
   888G11  C0AX60503   3.966   8.273  12.442
   888G11  H00S60504   3.975   8.182  12.499
   888G11  C0AW60505   4.019   8.292  12.315
   888G11  H00T60506   4.062   8.205  12.267
   888G11  C0AN60507   4.000   8.412  12.241
   888G11  C0AO60508   4.052   8.429  12.112
   888G11  C0AM60509   3.934   8.523  12.299
   888G11  C0B260510   3.708   8.817  12.514
   888G11  O00D60511   3.675   8.799  12.632
   888G11  C0B160512   3.660   8.936  12.455
   888G11  H00W60513   3.584   8.997  12.502
   888G11  C0AL60514   3.918   8.650  12.233
   888G11  C0AK60515   3.985   8.669  12.116
   888G11  C0B060516   3.708   8.963  12.323
   888G11  C0AZ60517   3.682   9.084  12.255
   888G11  H00X60518   3.616   9.162  12.291
   888G11  C0AJ60519   3.987   8.797  12.031
   888G11  C0AH60520   3.966   8.879  11.820
   888G11  C0AE60521   3.790   9.040  11.682
   888G11  C0AD60522   3.712   9.128  11.609
   888G11  C0AY60523   3.759   9.085  12.135
   888G11  C0AB60524   3.686   9.255  11.808
   888G11  C0AC60525   3.662   9.238  11.674
   888G11  C0BM60526   3.630   9.204  11.393
   888G11  C0CM60527   3.457   9.501  11.151
   888G11  C09M60528   3.465   9.492  11.007
   888G11  C09860529   3.459   9.615  10.935
   888G11  C08R60530   3.424   9.641  10.799
   888G11  C08Q60531   3.426   9.778  10.760
   888G11  C08P60532   3.371   9.867  10.661
   888G11  C08Y60533   3.368  10.005  10.705
   888G11  C09760534   3.386  10.034  10.839
   888G11  C09660535   3.314  10.134  10.886
   888G11  C09060536   3.267  10.193  10.761
   888G11  C09560537   3.170  10.295  10.752
   888G11  C09460538   3.123  10.359  10.633
   888G11  C08J60539   3.110  10.301  10.501
   888G11  C08I60540   2.983  10.339  10.448
   888G11  C08H60541   2.946  10.241  10.349
   888G11  C08G60542   3.030  10.125  10.366
   888G11  C08F60543   3.058  10.000  10.296
   888G11  C08E60544   3.001   9.972  10.170
   888G11  C05960545   2.924  10.066  10.091
   888G11  C05860546   2.888  10.033   9.958
   888G11  C05760547   2.815  10.114   9.870
   888G11  C05660548   2.779  10.242   9.923
   888G11  C05560549   2.841  10.299  10.030
   888G11  C05460550   2.761  10.408  10.076
   888G11  C05360551   2.644  10.413   9.986
   888G11  C05260552   2.527  10.495   9.996
   888G11  C05160553   2.501  10.567  10.120
   888G11  C05U60554   2.575  10.561  10.245
   888G11  C05T60555   2.691  10.489  10.297
   888G11  C06K60556   2.735  10.568  10.405
   888G11  H00J60557   2.838  10.566  10.437
   888G11  C06L60558   2.643  10.663  10.444
   888G11  H00I60559   2.659  10.734  10.524
   888G11  C05V60560   2.542  10.656  10.343
   888G11  C06J60561   2.441  10.745  10.326
   888G11  H00K60562   2.412  10.813  10.405
   888G11  C05X60563   2.354  10.746  10.219
   888G11  C06I60564   2.240  10.831  10.208
   888G11  H00L60565   2.211  10.901  10.285
   888G11  C04Z60566   2.148  10.829  10.099
   888G11  C06H60567   2.032  10.919  10.094
   888G11  H00H60568   2.014  11.002  10.162
   888G11  C04Y60569   1.940  10.904   9.985
   888G11  C06G60570   1.830  11.001   9.969
   888G11  O00960571   1.814  11.100  10.044
   888G11  O00860572   1.753  10.990   9.861
   888G11  C04P60573   1.770  10.888   9.775
   888G11  C04J60574   1.706  10.886   9.643
   888G11  C04Q60575   1.621  10.987   9.586
   888G11  H00E60576   1.606  11.079   9.640
   888G11  C04M60577   1.557  10.969   9.463
   888G11  C04R60578   1.464  11.056   9.405
   888G11  H00F60579   1.444  11.151   9.453
   888G11  C04S60580   1.392  11.025   9.292
   888G11  H00G60581   1.323  11.100   9.254
   888G11  O00760582   1.415  10.907   9.220
   888G11  C03V60583   1.499  10.820   9.275
   888G11  C03U60584   1.504  10.690   9.217
   888G11  O00660585   1.428  10.661   9.110
   888G11  C03F60586   1.428  10.538   9.060
   888G11  C03E60587   1.533  10.445   9.094
   888G11  C03D60588   1.627  10.483   9.191
   888G11  C03C60589   1.730  10.393   9.221
   888G11  C03B60590   1.736  10.274   9.151
   888G11  C03A60591   1.837  10.184   9.174
   888G11  C03960592   1.945  10.218   9.256
   888G11  C03860593   2.041  10.101   9.240
   888G11  C03760594   1.977  10.022   9.144
   888G11  C03660595   2.034   9.906   9.101
   888G11  C02R60596   1.983   9.801   9.028
   888G11  C03560597   2.075   9.698   9.043
   888G11  C03R60598   2.183   9.731   9.123
   888G11  C03S60599   2.246   9.641   9.210
   888G11  C04960600   2.322   9.694   9.310
   888G11  C04860601   2.321   9.836   9.319
   888G11  C03P60602   2.215   9.923   9.267
   888G11  C04760603   2.408   9.879   9.418
   888G11  C04660604   2.422  10.008   9.463
   888G11  C04560605   2.346  10.122   9.445
   888G11  C03T60606   2.225  10.147   9.375
   888G11  C04460607   2.182  10.281   9.407
   888G11  C04360608   2.283  10.339   9.486
   888G11  C04260609   2.222  10.429   9.579
   888G11  C04160610   2.081  10.440   9.533
   888G11  C04060611   1.976  10.516   9.588
   888G11  C03Z60612   1.863  10.571   9.515
   888G11  C04H60613   1.821  10.680   9.588
   888G11  C04G60614   1.898  10.694   9.701
   888G11  C03N60615   1.795  10.539   9.393
   888G11  C03Y60616   1.697  10.636   9.358
   888G11  C03X60617   1.669  10.755   9.432
   888G11  C04F60618   2.000  10.603   9.699
   888G11  C04E60619   2.097  10.620   9.799
   888G11  C04O60620   2.076  10.713   9.903
   888G11  C04D60621   2.223  10.556   9.802
   888G11  C04V60622   2.308  10.561   9.914
   888G11  C04W60623   2.286  10.650  10.020
   888G11  C04C60624   2.285  10.470   9.702
   888G11  C04L60625   2.410  10.428   9.761
   888G11  C04U60626   2.514  10.352   9.693
   888G11  C05Q60627   2.612  10.283   9.768
   888G11  C05P60628   2.653  10.166   9.711
   888G11  C04T60629   2.558  10.134   9.612
   888G11  C04B60630   2.478  10.247   9.599
   888G11  C03M60631   2.053  10.352   9.423
   888G11  C04A60632   2.376  10.241   9.508
   888G11  C05H60633   2.532  10.013   9.549
   888G11  C05G60634   2.589   9.885   9.560
   888G11  C05F60635   2.706   9.846   9.626
   888G11  C05E60636   2.747   9.713   9.648
   888G11  C05L60637   2.698   9.579   9.620
   888G11  C05K60638   2.591   9.549   9.533
   888G11  C05J60639   2.505   9.647   9.466
   888G11  C06660640   2.557   9.411   9.516
   888G11  C06560641   2.626   9.314   9.591
   888G11  C06460642   2.727   9.340   9.683
   888G11  C06N60643   2.592   9.179   9.571
   888G11  C06960644   2.493   9.137   9.481
   888G11  C06P60645   2.458   9.005   9.465
   888G11  C06R60646   2.355   8.962   9.380
   888G11  C06B60647   2.291   9.060   9.304
   888G11  C06S60648   2.191   9.024   9.216
   888G11  C02G60649   2.123   9.119   9.144
   888G11  C02F60650   2.022   9.076   9.053
   888G11  C02760651   1.979   8.943   9.044
   888G11  C02660652   1.873   8.907   8.969
   888G11  C00E60653   1.833   8.776   8.968
   888G11  C00D60654   1.721   8.749   8.895
   888G11  C00C60655   1.686   8.621   8.893
   888G11  C00B60656   1.744   8.517   8.958
   888G11  C01560657   1.857   8.543   9.032
   888G11  C07F60658   1.919   8.447   9.112
   888G11  C07E60659   2.023   8.489   9.194
   888G11  C06W60660   2.069   8.622   9.191
   888G11  C06V60661   2.006   8.715   9.115
   888G11  C06X60662   2.177   8.658   9.270
   888G11  C07B60663   2.225   8.565   9.358
   888G11  C07C60664   2.184   8.429   9.352
   888G11  C0FU60665   2.243   8.336   9.441
   888G11  C0F760666   2.194   8.210   9.447
   888G11  C0F660667   2.245   8.122   9.542
   888G11  C0F860668   2.189   7.995   9.551
   888G11  C0F960669   2.236   7.909   9.649
   888G11  C0FA60670   2.182   7.776   9.655
   888G11  C0FZ60671   2.081   7.741   9.573
   888G11  C0G060672   2.038   7.603   9.569
   888G11  C0GD60673   2.069   7.513   9.673
   888G11  C0FC60674   2.152   7.561   9.770
   888G11  C0GH60675   2.180   7.483   9.880
   888G11  C0EY60676   2.264   7.531   9.986
   888G11  C0EX60677   2.295   7.449  10.094
   888G11  C0EW60678   2.401   7.485  10.176
   888G11  C0FR60679   2.423   7.417  10.297
   888G11  H01D60680   2.488   7.456  10.375
   888G11  C0FS60681   2.359   7.297  10.330
   888G11  H01C60682   2.374   7.257  10.429
   888G11  C0GJ60683   2.263   7.252  10.238
   888G11  H01N60684   2.216   7.158  10.261
   888G11  C0EV60685   2.469   7.603  10.154
   888G11  C0FT60686   2.589   7.624  10.219
   888G11  H01E60687   2.637   7.547  10.279
   888G11  C0EU60688   2.431   7.692  10.054
   888G11  C0ET60689   2.500   7.809  10.029
   888G11  C0EI60690   2.476   7.896   9.927
   888G11  C0F160691   2.370   7.854   9.839
   888G11  C0F060692   2.306   7.729   9.856
   888G11  C0EH60693   2.552   8.014   9.906
   888G11  C0EG60694   2.669   8.045   9.987
   888G11  C0EJ60695   2.502   8.101   9.811
   888G11  C0F360696   2.396   8.065   9.724
   888G11  C0EK60697   2.565   8.224   9.797
   888G11  C0EL60698   2.671   8.267   9.885
   888G11  C0EM60699   2.712   8.401   9.868
   888G11  C0EN60700   2.657   8.481   9.761
   888G11  C07I60701   2.695   8.616   9.768
   888G11  C07460702   2.640   8.715   9.688
   888G11  C07360703   2.683   8.845   9.706
   888G11  C07260704   2.627   8.943   9.625
   888G11  C07560705   2.538   8.673   9.608
   888G11  C07660706   2.491   8.541   9.609
   888G11  C07860707   2.386   8.508   9.525
   888G11  C07G60708   2.482   8.773   9.534
   888G11  C07060709   2.378   8.734   9.448
   888G11  C07Z60710   2.786   8.635   9.866
   888G11  C07760711   2.548   8.445   9.688
   888G11  C0EO60712   2.508   8.318   9.704
   888G11  C0F460713   2.398   8.283   9.618
   888G11  C0EQ60714   2.615   7.831  10.101
   888G11  C0FQ60715   2.229   7.324  10.117
   888G11  C0GI60716   2.134   7.291  10.018
   888G11  H01L60717   2.095   7.191  10.027
   888G11  C0EZ60718   2.329   7.653   9.970
   888G11  C0GG60719   2.107   7.361   9.903
   888G11  C0GF60720   2.027   7.309   9.798
   888G11  H01M60721   1.966   7.221   9.813
   888G11  C0GE60722   2.008   7.384   9.681
   888G11  H01K60723   1.939   7.348   9.606
   888G11  O00J60724   1.949   7.571   9.476
   888G11  C0GA60725   1.900   7.659   9.383
   888G11  C0G960726   1.815   7.607   9.288
   888G11  H01H60727   1.792   7.502   9.288
   888G11  C0G860728   1.756   7.694   9.198
   888G11  C0G760729   1.670   7.648   9.094
   888G11  H01I60730   1.654   7.544   9.070
   888G11  O00I60731   1.628   7.727   8.990
   888G11  C0G660732   1.655   7.864   8.998
   888G11  H01J60733   1.609   7.918   8.917
   888G11  C02D60734   1.734   7.917   9.100
   888G11  C02C60735   1.775   8.055   9.111
   888G11  C01760736   1.706   8.153   9.035
   888G11  C01660737   1.755   8.287   9.030
   888G11  O00160738   1.592   8.129   8.969
   888G11  C01860739   1.521   8.226   8.900
   888G11  C00960740   1.562   8.358   8.891
   888G11  C00860741   1.501   8.470   8.825
   888G11  C00760742   1.377   8.494   8.760
   888G11  C00660743   1.274   8.403   8.759
   888G11  C00560744   1.150   8.425   8.686
   888G11  C00460745   1.091   8.547   8.636
   888G11  C00360746   1.133   8.687   8.646
   888G11  C00260747   1.043   8.795   8.608
   888G11  C00P60748   1.077   8.932   8.623
   888G11  C00O60749   0.990   9.042   8.602
   888G11  C00N60750   1.024   9.175   8.631
   888G11  C01060751   0.932   9.277   8.629
   888G11  C01160752   0.967   9.410   8.655
   888G11  C01Q60753   0.861   9.507   8.653
   888G11  C01U60754   0.730   9.473   8.614
   888G11  C01260755   0.700   9.335   8.589
   888G11  H00060756   0.601   9.298   8.569
   888G11  C01V60757   0.639   9.582   8.618
   888G11  H00760758   0.533   9.560   8.610
   888G11  O00560759   0.666   9.714   8.655
   888G11  C01W60760   0.788   9.735   8.706
   888G11  C03160761   0.805   9.865   8.751
   888G11  C03260762   0.934   9.896   8.792
   888G11  H00A60763   0.958   9.994   8.831
   888G11  C03360764   1.040   9.803   8.789
   888G11  H00B60765   1.135   9.819   8.837
   888G11  C01O60766   1.026   9.678   8.722
   888G11  C01N60767   1.125   9.581   8.713
   888G11  C01M60768   1.270   9.614   8.751
   888G11  C01L60769   1.368   9.723   8.804
   888G11  C01K60770   1.487   9.651   8.829
   888G11  C01Y60771   1.609   9.699   8.879
   888G11  C02I60772   1.621   9.831   8.916
   888G11  C02N60773   1.742   9.872   8.976
   888G11  C02M60774   1.746  10.008   9.024
   888G11  C02L60775   1.640  10.098   9.004
   888G11  C02K60776   1.529  10.053   8.928
   888G11  C02U60777   1.431  10.151   8.889
   888G11  C02V60778   1.442  10.284   8.936
   888G11  C03H60779   1.348  10.382   8.893
   888G11  H00C60780   1.276  10.372   8.814
   888G11  C02W60781   1.332  10.108   8.799
   888G11  C02X60782   1.326   9.972   8.765
   888G11  C02Y60783   1.247   9.966   8.647
   888G11  H00860784   1.226   9.884   8.580
   888G11  C02Z60785   1.176  10.098   8.631
   888G11  O00460786   1.079  10.128   8.556
   888G11  O00360787   1.240  10.182   8.727
   888G11  C02J60788   1.515   9.915   8.883
   888G11  C01Z60789   1.712   9.599   8.896
   888G11  C02060790   1.686   9.469   8.859
   888G11  C01I60791   1.566   9.427   8.816
   888G11  C01H60792   1.531   9.295   8.793
   888G11  C00K60793   1.407   9.265   8.747
   888G11  C01S60794   1.312   9.362   8.729
   888G11  C01460795   1.188   9.342   8.678
   888G11  C00J60796   1.369   9.136   8.725
   888G11  C00I60797   1.464   9.037   8.754
   888G11  C00H60798   1.588   9.075   8.802
   888G11  C00G60799   1.678   8.978   8.846
   888G11  C00S60800   1.422   8.904   8.737
   888G11  C00T60801   1.517   8.817   8.778
   888G11  C00U60802   1.485   8.685   8.768
   888G11  C00R60803   1.292   8.869   8.699
   888G11  C00L60804   1.237   9.102   8.690
   888G11  C02860805   1.622   9.204   8.825
   888G11  C02360806   1.744   9.240   8.876
   888G11  C02460807   1.831   9.140   8.921
   888G11  C02160808   1.777   9.374   8.897
   888G11  C02260809   1.891   9.408   8.960
   888G11  C02H60810   1.975   9.308   9.015
   888G11  C03060811   2.085   9.344   9.094
   888G11  C03460812   2.115   9.473   9.113
   888G11  C02P60813   1.922   9.538   8.977
   888G11  C02B60814   1.831   9.641   8.946
   888G11  C01J60815   1.474   9.525   8.792
   888G11  C01X60816   1.392   9.865   8.822
   888G11  C01T60817   1.346   9.496   8.752
   888G11  H00960818   0.723   9.934   8.752
   888G11  C01P60819   0.892   9.641   8.694
   888G11  C01R60820   1.097   9.445   8.687
   888G11  C00Z60821   0.800   9.241   8.590
   888G11  O00060822   0.768   9.119   8.546
   888G11  C00M60823   1.149   9.206   8.668
   888G11  C00Y60824   0.858   9.013   8.559
   888G11  C01360825   0.827   8.877   8.527
   888G11  H00160826   0.730   8.860   8.483
   888G11  C00Q60827   1.202   8.967   8.670
   888G11  C00160828   0.912   8.771   8.554
   888G11  C00060829   0.890   8.635   8.530
   888G11  H00660830   0.794   8.616   8.485
   888G11  C00W60831   1.257   8.729   8.688
   888G11  C01G60832   0.966   8.532   8.571
   888G11  H00560833   0.928   8.434   8.545
   888G11  C01C60834   1.092   8.297   8.662
   888G11  H00260835   1.000   8.265   8.615
   888G11  C01B60836   1.176   8.200   8.732
   888G11  C01D60837   1.151   8.058   8.752
   888G11  H00360838   1.067   7.998   8.721
   888G11  C01E60839   1.250   7.993   8.813
   888G11  H00460840   1.237   7.887   8.827
   888G11  O00260841   1.368   8.052   8.859
   888G11  C01A60842   1.294   8.265   8.780
   888G11  C00V60843   1.360   8.632   8.733
   888G11  C01960844   1.394   8.187   8.844
   888G11  C02E60845   1.879   8.096   9.196
   888G11  C0FX60846   1.931   8.004   9.287
   888G11  C0FW60847   2.035   8.041   9.367
   888G11  C0GB60848   1.884   7.875   9.289
   888G11  C0G360849   1.920   8.230   9.197
   888G11  C07H60850   2.030   8.265   9.278
   888G11  C0GC60851   1.789   7.831   9.196
   888G11  C0G260852   1.940   7.792   9.381
   888G11  C0G160853   2.030   7.831   9.481
   888G11  C0FB60854   2.214   7.685   9.760
   888G11  C0F260855   2.335   7.943   9.732
   888G11  C0FY60856   2.079   7.957   9.468
   888G11  C0F560857   2.347   8.155   9.630
   888G11  C0FV60858   2.087   8.169   9.363
   888G11  C07960859   2.343   8.378   9.525
   888G11  C07A60860   2.331   8.602   9.441
   888G11  C06Y60861   2.213   8.793   9.283
   888G11  C07D60862   2.078   8.391   9.276
   888G11  C01F60863   1.868   8.313   9.107
   888G11  C00A60864   1.687   8.388   8.955
   888G11  C00X60865   1.570   8.590   8.823
   888G11  C00F60866   1.638   8.849   8.839
   888G11  C02960867   1.901   8.676   9.035
   888G11  C02560868   1.791   9.006   8.914
   888G11  C06U60869   2.049   8.846   9.116
   888G11  C02A60870   1.946   9.175   8.989
   888G11  C05Y60871   2.158   9.248   9.163
   888G11  C05Z60872   2.256   9.287   9.249
   888G11  C06060873   2.285   9.425   9.270
   888G11  C06260874   2.387   9.468   9.356
   888G11  C06T60875   2.153   8.889   9.203
   888G11  C06A60876   2.323   9.197   9.319
   888G11  C06Z60877   2.316   8.829   9.371
   888G11  C06Q60878   2.526   8.905   9.538
   888G11  C06860879   2.423   9.234   9.406
   888G11  C06760880   2.459   9.370   9.426
   888G11  C06360881   2.760   9.468   9.698
   888G11  C06C60882   2.859   9.502   9.799
   888G11  C06D60883   2.901   9.635   9.831
   888G11  C06E60884   2.966   9.673   9.950
   888G11  C07Q60885   3.021   9.576  10.023
   888G11  C07P60886   3.002   9.443   9.986
   888G11  C07T60887   3.058   9.342  10.060
   888G11  C07U60888   3.029   9.207  10.043
   888G11  C07V60889   3.096   9.105  10.112
   888G11  C08460890   3.185   9.141  10.213
   888G11  C08C60891   3.211   9.279  10.234
   888G11  C08B60892   3.280   9.310  10.344
   888G11  C08A60893   3.284   9.445  10.376
   888G11  C08960894   3.216   9.547  10.320
   888G11  C08860895   3.212   9.674  10.378
   888G11  C08760896   3.153   9.776  10.309
   888G11  C08660897   3.090   9.743  10.192
   888G11  C08X60898   3.274   9.701  10.500
   888G11  C08T60899   3.333   9.585  10.572
   888G11  C08D60900   3.155   9.513  10.201
   888G11  C08U60901   3.343   9.469  10.500
   888G11  C08V60902   3.403   9.370  10.578
   888G11  C0CY60903   3.399   9.239  10.543
   888G11  C0CX60904   3.445   9.151  10.639
   888G11  C0CW60905   3.443   9.020  10.599
   888G11  C0CV60906   3.380   8.984  10.483
   888G11  C0D460907   3.318   9.079  10.400
   888G11  C0CU60908   3.359   8.848  10.451
   888G11  C0CT60909   3.410   8.744  10.532
   888G11  C0CS60910   3.472   8.784  10.650
   888G11  C0D660911   3.288   8.816  10.340
   888G11  C0EC60912   3.222   8.908  10.267
   888G11  C07X60913   3.129   8.876  10.168
   888G11  C0DL60914   3.261   8.682  10.319
   888G11  C0DK60915   3.177   8.648  10.217
   888G11  C0DN60916   3.163   8.514  10.228
   888G11  C0D860917   3.309   8.574  10.389
   888G11  C08W60918   3.422   9.413  10.709
   888G11  C0CQ60919   3.468   9.325  10.812
   888G11  C09360920   3.339   9.213  10.426
   888G11  C09260921   3.244   9.042  10.292
   888G11  C08560922   3.147   9.378  10.165
   888G11  C07S60923   3.095   9.613  10.136
   888G11  C06F60924   2.968   9.806   9.994
   888G11  C07O60925   2.916   9.405   9.879
   888G11  C07N60926   2.881   9.268   9.860
   888G11  C05D60927   2.843   9.734   9.752
   888G11  C05C60928   2.860   9.863   9.795
   888G11  C05N60929   2.770   9.937   9.715
   888G11  C05M60930   2.505   9.796   9.485
   888G11  C05I60931   2.403   9.605   9.381
   888G11  C06160932   2.215   9.511   9.196
   888G11  C02Q60933   2.039   9.567   9.044
   888G11  C02O60934   1.847   9.773   8.983
   888G11  C03Q60935   2.148   9.858   9.160
   888G11  C03O60936   2.159  10.054   9.300
   888G11  C03L60937   1.937  10.331   9.340
   888G11  C02S60938   1.851  10.059   9.110
   888G11  C02T60939   1.639  10.230   9.058
   888G11  C03K60940   1.822  10.423   9.324
   888G11  C03I60941   1.538  10.317   9.031
   888G11  C03G60942   1.340  10.505   8.959
   888G11  H00D60943   1.268  10.584   8.941
   888G11  C03J60944   1.612  10.606   9.253
   888G11  C03W60945   1.574  10.847   9.390
   888G11  C04I60946   1.722  10.774   9.559
   888G11  C04K60947   1.874  10.801   9.793
   888G11  C04N60948   1.962  10.802   9.896
   888G11  C04X60949   2.168  10.730  10.005
   888G11  C05060950   2.383  10.653  10.123
   888G11  C05W60951   2.427  10.490   9.893
   888G11  C05S60952   2.769  10.392  10.218
   888G11  C05R60953   2.674  10.320   9.886
   888G11  C05O60954   2.749  10.073   9.754
   888G11  C05B60955   2.907   9.906   9.920
   888G11  C05A60956   2.878  10.200  10.125
   888G11  C07R60957   3.022   9.842  10.117
   888G11  C08N60958   3.147   9.908  10.363
   888G11  C08M60959   3.218   9.941  10.479
   888G11  C08L60960   3.211  10.074  10.527
   888G11  C09160961   2.854  10.273  10.245
   888G11  C09K60962   2.901  10.377  10.561
   888G11  H00M60963   2.793  10.372  10.563
   888G11  C08K60964   3.121  10.164  10.471
   888G11  C09J60965   2.995  10.414  10.666
   888G11  C09I60966   2.983  10.410  10.809
   888G11  C09L60967   2.879  10.478  10.885
   888G11  H00N60968   2.791  10.526  10.844
   888G11  C09Q60969   2.899  10.467  11.017
   888G11  H00O60970   2.823  10.504  11.084
   888G11  O00B60971   2.998  10.391  11.079
   888G11  C09G60972   3.095  10.325  11.003
   888G11  C09F60973   3.178  10.240  11.075
   888G11  O00A60974   3.160  10.250  11.207
   888G11  C09P60975   3.253  10.191  11.289
   888G11  H00P60976   3.317  10.245  11.357
   888G11  C09O60977   3.290  10.058  11.256
   888G11  C09D60978   3.325  10.049  11.116
   888G11  C09C60979   3.403   9.945  11.053
   888G11  C09N60980   3.448   9.815  11.099
   888G11  C09T60981   3.380   9.747  11.206
   888G11  C09S60982   3.301   9.814  11.305
   888G11  C0CP60983   3.252   9.703  11.373
   888G11  C0CN60984   3.295   9.577  11.333
   888G11  C0CO60985   3.256   9.468  11.406
   888G11  H01460986   3.281   9.367  11.377
   888G11  C0CZ60987   3.166   9.489  11.513
   888G11  H01560988   3.136   9.403  11.571
   888G11  C0D060989   3.121   9.615  11.562
   888G11  C0G560990   3.039   9.645  11.676
   888G11  H01F60991   2.997   9.563  11.732
   888G11  C0G460992   3.031   9.770  11.727
   888G11  H01G60993   2.955   9.777  11.803
   888G11  O00H60994   3.092   9.876  11.669
   888G11  C0D260995   3.160   9.850  11.553
   888G11  C09V60996   3.204   9.960  11.471
   888G11  H00Q60997   3.189  10.061  11.508
   888G11  C0D160998   3.182   9.726  11.498
   888G11  C09R60999   3.263   9.943  11.345
   888G11  C09H61000   3.091  10.339  10.862
   888G11  C09E61001   3.277  10.148  11.025
   888G11  C09B61002   3.437   9.946  10.919
   888G11  C08Z61003   3.278  10.095  10.651
   888G11  C08O61004   3.287   9.838  10.546
   888G11  C09A61005   3.498   9.831  10.870
   888G11  C08S61006   3.388   9.550  10.700
   888G11  C09961007   3.499   9.743  10.981
   888G11  C09U61008   3.384   9.602  11.220
   888G11  C0BO61009   3.619   9.189  11.253
   888G11  C0CL61010   3.492   9.362  10.948
   888G11  C0D361011   3.482   9.191  10.766
   888G11  C0D561012   3.487   8.920  10.689
   888G11  C0BR61013   3.617   9.034  11.072
   888G11  C0BQ61014   3.643   9.066  11.204
   888G11  C0BL61015   3.692   9.110  11.471
   888G11  C0AF61016   3.852   8.937  11.617
   888G11  C0BH61017   3.820   8.754  11.297
   888G11  C0BG61018   3.843   8.626  11.248
   888G11  C0BD61019   3.973   8.574  11.446
   888G11  C0AG61020   3.933   8.855  11.683
   888G11  C0AI61021   4.025   8.783  11.896
   888G11  C0AV61022   4.045   8.559  12.050
   888G11  C0BB61023   4.164   8.438  11.723
   888G11  O00C61024   4.097   8.312  12.048
   888G11  C0BC61025   4.197   8.311  11.694
   888G11  C0B961026   4.050   8.485  11.521
   888G11  O00E61027   4.021   8.187  11.314
   888G11  C0CA61028   3.959   8.138  11.202
   888G11  O00F61029   3.963   8.019  11.191
   888G11  C0BF61030   3.923   8.537  11.322
   888G11  C0C561031   3.892   8.233  11.120
   888G11  C0C461032   3.832   8.183  10.997
   888G11  H01161033   3.848   8.083  10.960
   888G11  C0C861034   3.786   8.586  11.129
   888G11  C0C261035   3.753   8.284  10.928
   888G11  C0C361036   3.674   8.248  10.814
   888G11  C0DY61037   3.648   8.116  10.756
   888G11  H01661038   3.681   8.019  10.789
   888G11  C0DX61039   3.536   8.129  10.666
   888G11  C0DW61040   3.434   8.032  10.671
   888G11  C0BY61041   3.655   8.639  10.935
   888G11  C0DB61042   3.591   8.338  10.747
   888G11  C0CC61043   3.527   8.689  10.736
   888G11  C0D761044   3.390   8.606  10.507
   888G11  C0DZ61045   3.509   8.271  10.651
   888G11  C0DM61046   3.246   8.461  10.328
   888G11  C0DQ61047   3.275   8.155  10.505
   888G11  C0DV61048   3.311   8.050  10.596
   888G11  C0E061049   3.423   7.900  10.739
   888G11  C0FO61050   3.266   7.614  10.597
   888G11  C0E361051   3.522   7.793  10.745
   888G11  H01761052   3.628   7.809  10.727
   888G11  C0GV61053   3.368   7.517  10.582
   888G11  C0ES61054   3.182   7.649  10.485
   888G11  C0GQ61055   3.281   7.367  10.269
   888G11  C0FJ61056   2.969   7.456  10.090
   888G11  C0ED61057   3.007   7.686  10.257
   888G11  C0ER61058   2.668   7.739  10.190
   888G11  C0EP61059   2.702   7.941  10.080
   888G11  C0E661060   3.015   7.931  10.309
   888G11  C0DE61061   3.057   8.219  10.205
   888G11  C0EA61062   2.732   8.173   9.983
   888G11  C0DF61063   3.043   8.330  10.115
   888G11  C08061064   2.791   8.501   9.933
   888G11  C0DO61065   3.072   8.466  10.139
   888G11  C0DJ61066   3.105   8.744  10.133
   888G11  C07K61067   2.834   8.770   9.878
   888G11  C07W61068   3.056   8.973  10.100
   888G11  C08361069   2.943   9.171   9.936
   888G11  C07J61070   2.781   8.876   9.798
   888G11  C06O61071   2.660   9.080   9.643
   888G11  C06M61072   2.787   9.238   9.760
   898G11  C07161073   9.530   5.164   6.057
   898G11  C07L61074   9.405   5.124   6.116
   898G11  C07M61075   9.385   4.989   6.149
   898G11  C07Y61076   9.257   4.948   6.198
   898G11  C08161077   9.148   5.040   6.208
   898G11  C08261078   9.015   4.990   6.231
   898G11  C0DI61079   8.885   5.055   6.210
   898G11  C0DH61080   8.841   5.183   6.185
   898G11  C0DG61081   8.701   5.194   6.170
   898G11  C0E961082   8.620   5.288   6.246
   898G11  C0E861083   8.513   5.209   6.314
   898G11  C0E761084   8.407   5.256   6.409
   898G11  C0EB61085   8.368   5.392   6.413
   898G11  C0EF61086   8.274   5.466   6.500
   898G11  C0EE61087   8.248   5.448   6.637
   898G11  C0FD61088   8.255   5.547   6.739
   898G11  C0FE61089   8.277   5.687   6.718
   898G11  H01B61090   8.287   5.730   6.619
   898G11  C0FF61091   8.283   5.783   6.823
   898G11  H01A61092   8.287   5.888   6.798
   898G11  C0FG61093   8.272   5.734   6.950
   898G11  H01861094   8.267   5.813   7.024
   898G11  C0FH61095   8.250   5.598   6.979
   898G11  C0FI61096   8.254   5.540   7.111
   898G11  H01961097   8.284   5.601   7.195
   898G11  O00K61098   8.223   5.414   7.136
   898G11  C0FL61099   8.186   5.332   7.035
   898G11  C0FK61100   8.196   5.375   6.898
   898G11  C0FM61101   8.169   5.281   6.794
   898G11  C0FN61102   8.094   5.164   6.825
   898G11  C0FP61103   8.077   5.124   6.958
   898G11  C0GO61104   8.032   5.000   6.992
   898G11  C0GN61105   8.029   4.951   7.115
   898G11  C0GR61106   8.066   5.041   7.218
   898G11  C0GS61107   8.059   4.996   7.352
   898G11  H01Q61108   8.081   5.065   7.432
   898G11  C0GT61109   8.024   4.862   7.374
   898G11  H01O61110   8.028   4.814   7.471
   898G11  C0GU61111   7.990   4.774   7.269
   898G11  H01P61112   7.978   4.668   7.288
   898G11  O00L61113   8.116   5.164   7.191
   898G11  C0GM61114   7.988   4.816   7.134
   898G11  C0GL61115   7.962   4.735   7.020
   898G11  H01R61116   7.956   4.628   7.031
   898G11  C0GK61117   7.950   4.793   6.897
   898G11  C0GP61118   7.928   4.740   6.764
   898G11  C0E261119   7.923   4.858   6.676
   898G11  C0E161120   7.975   4.817   6.546
   898G11  C0DU61121   8.105   4.865   6.504
   898G11  C0DT61122   8.158   4.991   6.512
   898G11  C0E461123   8.126   5.091   6.600
   898G11  C0E561124   8.220   5.197   6.588
   898G11  C0DS61125   8.275   5.032   6.442
   898G11  C0DR61126   8.354   4.927   6.393
   898G11  C0DD61127   8.474   4.941   6.328
   898G11  C0DC61128   8.516   4.801   6.314
   898G11  C0DP61129   8.426   4.704   6.358
   898G11  C0DA61130   8.429   4.557   6.359
   898G11  C0D961131   8.544   4.462   6.333
   898G11  C0CR61132   8.529   4.317   6.331
   898G11  C0C061133   8.403   4.263   6.347
   898G11  C0BZ61134   8.371   4.124   6.348
   898G11  C0C161135   8.238   4.077   6.363
   898G11  C0C761136   8.211   3.944   6.358
   898G11  C0C661137   8.086   3.891   6.398
   898G11  C0C961138   8.064   3.757   6.400
   898G11  C0B861139   7.935   3.711   6.443
   898G11  C0B761140   7.903   3.572   6.437
   898G11  C0B661141   7.790   3.504   6.492
   898G11  C0B561142   7.726   3.559   6.607
   898G11  H00Z61143   7.717   3.659   6.645
   898G11  C0B461144   7.697   3.440   6.690
   898G11  H01061145   7.649   3.432   6.787
   898G11  C0B361146   7.730   3.324   6.620
   898G11  C0AP61147   7.782   3.191   6.634
   898G11  C0AQ61148   7.866   3.173   6.519
   898G11  C0AR61149   7.980   3.090   6.521
   898G11  C0AS61150   8.081   3.127   6.438
   898G11  C0AT61151   8.097   3.252   6.385
   898G11  C0BA61152   7.989   3.340   6.394
   898G11  C0AU61153   8.220   3.307   6.360
   898G11  C0BE61154   8.237   3.442   6.342
   898G11  C0BI61155   8.366   3.485   6.310
   898G11  C0BJ61156   8.472   3.393   6.308
   898G11  C0BK61157   8.597   3.444   6.287
   898G11  C0BW61158   8.627   3.580   6.271
   898G11  C0BV61159   8.517   3.671   6.282
   898G11  C0BU61160   8.546   3.806   6.292
   898G11  C0BX61161   8.445   3.901   6.317
   898G11  C0BT61162   8.676   3.854   6.274
   898G11  C0CD61163   8.704   3.992   6.284
   898G11  C0CB61164   8.604   4.085   6.309
   898G11  C0CE61165   8.838   4.040   6.271
   898G11  C0CK61166   8.938   3.945   6.248
   898G11  C0BS61167   8.911   3.811   6.229
   898G11  C0CJ61168   9.013   3.719   6.199
   898G11  C0BP61169   8.983   3.584   6.192
   898G11  C0CI61170   9.075   3.492   6.152
   898G11  C0CH61171   9.052   3.361   6.186
   898G11  H01261172   9.140   3.298   6.183
   898G11  C0BN61173   8.929   3.311   6.227
   898G11  C0CG61174   8.909   3.174   6.245
   898G11  C0CF61175   9.019   3.081   6.230
   898G11  H01361176   9.107   3.109   6.174
   898G11  O00G61177   8.992   2.947   6.243
   898G11  C0AA61178   8.876   2.912   6.307
   898G11  C0A961179   8.868   2.778   6.342
   898G11  H00U61180   8.953   2.713   6.326
   898G11  C0A861181   8.758   2.729   6.417
   898G11  H00V61182   8.755   2.630   6.459
   898G11  C0A761183   8.646   2.812   6.447
   898G11  C0A661184   8.649   2.948   6.399
   898G11  C0A561185   8.544   3.040   6.388
   898G11  C0A461186   8.414   3.004   6.432
   898G11  C0A361187   8.350   2.911   6.521
   898G11  C0A261188   8.426   2.822   6.594
   898G11  C0A161189   8.367   2.734   6.690
   898G11  C0A061190   8.242   2.738   6.773
   898G11  C09Z61191   8.236   2.643   6.876
   898G11  C09Y61192   8.133   2.655   6.974
   898G11  H00Y61193   8.141   2.593   7.062
   898G11  C09X61194   8.038   2.754   6.968
   898G11  C09W61195   7.955   2.770   7.079
   898G11  H00R61196   7.977   2.715   7.170
   898G11  C0AX61197   7.868   2.881   7.091
   898G11  H00S61198   7.814   2.898   7.183
   898G11  C0AW61199   7.845   2.956   6.976
   898G11  H00T61200   7.774   3.037   6.983
   898G11  C0AN61201   7.918   2.937   6.850
   898G11  C0AO61202   7.910   3.016   6.738
   898G11  C0AM61203   8.028   2.839   6.853
   898G11  C0B261204   8.332   2.539   6.895
   898G11  O00D61205   8.329   2.457   6.986
   898G11  C0B161206   8.440   2.521   6.801
   898G11  H00W61207   8.509   2.439   6.810
   898G11  C0AL61208   8.133   2.832   6.756
   898G11  C0AK61209   8.113   2.917   6.645
   898G11  C0B061210   8.455   2.624   6.709
   898G11  C0AZ61211   8.569   2.640   6.621
   898G11  H00X61212   8.637   2.557   6.619
   898G11  C0AJ61213   8.217   2.947   6.546
   898G11  C0AH61214   8.309   3.087   6.389
   898G11  C0AE61215   8.555   3.170   6.335
   898G11  C0AD61216   8.676   3.217   6.301
   898G11  C0AY61217   8.552   2.761   6.544
   898G11  C0AB61218   8.770   3.000   6.339
   898G11  C0AC61219   8.784   3.132   6.299
   898G11  C0BM61220   8.827   3.399   6.246
   898G11  C0CM61221   9.183   3.538   6.086
   898G11  C09M61222   9.238   3.664   6.117
   898G11  C09861223   9.384   3.673   6.108
   898G11  C08R61224   9.476   3.786   6.098
   898G11  C08Q61225   9.613   3.756   6.091
   898G11  C08P61226   9.723   3.819   6.022
   898G11  C08Y61227   9.819   3.735   5.960
   898G11  C09761228   9.792   3.599   5.947
   898G11  C09661229   9.843   3.554   5.826
   898G11  C09061230   9.942   3.654   5.787
   898G11  C09561231  10.007   3.659   5.667
   898G11  C09461232  10.113   3.753   5.643
   898G11  C08J61233  10.136   3.883   5.695
   898G11  C08I61234  10.188   3.966   5.590
   898G11  C08H61235  10.167   4.108   5.627
   898G11  C08G61236  10.066   4.104   5.737
   898G11  C08F61237   9.997   4.194   5.833
   898G11  C08E61238  10.041   4.327   5.849
   898G11  C05961239  10.173   4.380   5.806
   898G11  C05861240  10.202   4.516   5.825
   898G11  C05761241  10.319   4.582   5.785
   898G11  C05661242  10.417   4.501   5.720
   898G11  C05561243  10.408   4.363   5.712
   898G11  C05461244  10.480   4.330   5.596
   898G11  C05361245  10.544   4.449   5.537
   898G11  C05261246  10.602   4.471   5.402
   898G11  C05161247  10.601   4.364   5.306
   898G11  C05U61248  10.531   4.234   5.315
   898G11  C05T61249  10.439   4.178   5.408
   898G11  C06K61250  10.438   4.035   5.374
   898G11  H00J61251  10.389   3.970   5.445
   898G11  C06L61252  10.506   4.013   5.253
   898G11  H00I61253  10.516   3.919   5.201
   898G11  C05V61254  10.556   4.140   5.216
   898G11  C06J61255  10.623   4.162   5.099
   898G11  H00K61256  10.634   4.082   5.028
   898G11  C05X61257  10.673   4.288   5.069
   898G11  C06I61258  10.739   4.324   4.949
   898G11  H00L61259  10.753   4.248   4.875
   898G11  C04Z61260  10.786   4.455   4.921
   898G11  C06H61261  10.848   4.478   4.794
   898G11  H00H61262  10.852   4.401   4.718
   898G11  C04Y61263  10.887   4.610   4.757
   898G11  C06G61264  10.938   4.634   4.621
   898G11  O00961265  10.941   4.552   4.533
   898G11  O00861266  10.978   4.761   4.593
   898G11  C04P61267  10.976   4.866   4.688
   898G11  C04J61268  10.992   5.003   4.658
   898G11  C04Q61269  11.027   5.058   4.531
   898G11  H00E61270  11.035   4.998   4.442
   898G11  C04M61271  11.027   5.194   4.508
   898G11  C04R61272  11.035   5.255   4.381
   898G11  H00F61273  11.032   5.190   4.294
   898G11  C04S61274  11.038   5.387   4.369
   898G11  H00G61275  11.049   5.429   4.270
   898G11  O00761276  11.037   5.477   4.476
   898G11  C03V61277  11.012   5.422   4.600
   898G11  C03U61278  11.004   5.507   4.714
   898G11  O00661279  11.029   5.638   4.688
   898G11  C03F61280  11.010   5.732   4.780
   898G11  C03E61281  10.948   5.695   4.904
   898G11  C03D61282  10.921   5.558   4.933
   898G11  C03C61283  10.866   5.516   5.056
   898G11  C03B61284  10.817   5.623   5.131
   898G11  C03A61285  10.753   5.591   5.247
   898G11  C03961286  10.733   5.452   5.288
   898G11  C03861287  10.651   5.461   5.406
   898G11  C03761288  10.636   5.602   5.418
   898G11  C03661289  10.548   5.652   5.513
   898G11  C02R61290  10.502   5.776   5.524
   898G11  C03561291  10.393   5.755   5.613
   898G11  C03R61292  10.385   5.628   5.655
   898G11  C03S61293  10.273   5.574   5.714
   898G11  C04961294  10.260   5.440   5.712
   898G11  C04861295  10.364   5.370   5.650
   898G11  C03P61296  10.474   5.422   5.574
   898G11  C04761297  10.358   5.234   5.687
   898G11  C04661298  10.449   5.132   5.653
   898G11  C04561299  10.554   5.134   5.560
   898G11  C03T61300  10.606   5.233   5.482
   898G11  C04461301  10.700   5.178   5.397
   898G11  C04361302  10.721   5.045   5.439
   898G11  C04261303  10.769   4.966   5.332
   898G11  C04161304  10.808   5.074   5.238
   898G11  C04061305  10.870   5.045   5.111
   898G11  C03Z61306  10.901   5.139   5.006
   898G11  C04H61307  10.938   5.062   4.892
   898G11  C04G61308  10.925   4.928   4.922
   898G11  C03N61309  10.903   5.283   4.984
   898G11  C03Y61310  10.943   5.323   4.856
   898G11  C03X61311  10.979   5.239   4.751
   898G11  C04F61312  10.877   4.909   5.049
   898G11  C04E61313  10.826   4.780   5.089
   898G11  C04O61314  10.834   4.680   4.989
   898G11  C04D61315  10.770   4.742   5.215
   898G11  C04V61316  10.718   4.611   5.240
   898G11  C04W61317  10.724   4.513   5.143
   898G11  C04C61318  10.744   4.823   5.326
   898G11  C04L61319  10.683   4.727   5.428
   898G11  C04U61320  10.632   4.758   5.560
   898G11  C05Q61321  10.535   4.683   5.626
   898G11  C05P61322  10.453   4.762   5.701
   898G11  C04T61323  10.476   4.896   5.676
   898G11  C04B61324  10.586   4.894   5.590
   898G11  C03M61325  10.773   5.212   5.275
   898G11  C04A61326  10.622   5.016   5.533
   898G11  C05H61327  10.411   5.013   5.716
   898G11  C05G61328  10.294   5.040   5.793
   898G11  C05F61329  10.212   4.937   5.846
   898G11  C05E61330  10.084   4.959   5.901
   898G11  C05L61331   9.989   5.062   5.917
   898G11  C05K61332  10.012   5.201   5.879
   898G11  C05J61333  10.132   5.251   5.817
   898G11  C06661334   9.905   5.289   5.904
   898G11  C06561335   9.781   5.249   5.952
   898G11  C06461336   9.761   5.114   5.990
   898G11  C06N61337   9.670   5.337   5.962
   898G11  C06961338   9.691   5.468   5.927
   898G11  C06P61339   9.585   5.558   5.940
   898G11  C06R61340   9.591   5.690   5.904
   898G11  C06B61341   9.712   5.738   5.862
   898G11  C06S61342   9.723   5.870   5.821
   898G11  C02G61343   9.847   5.916   5.779
   898G11  C02F61344   9.862   6.050   5.734
   898G11  C02761345   9.752   6.132   5.739
   898G11  C02661346   9.766   6.264   5.694
   898G11  C00E61347   9.654   6.345   5.691
   898G11  C00D61348   9.671   6.473   5.644
   898G11  C00C61349   9.560   6.550   5.653
   898G11  C00B61350   9.430   6.517   5.686
   898G11  C01561351   9.417   6.384   5.732
   898G11  C07F61352   9.291   6.335   5.762
   898G11  C07E61353   9.281   6.204   5.811
   898G11  C06W61354   9.393   6.125   5.814
   898G11  C06V61355   9.519   6.169   5.776
   898G11  C06X61356   9.377   5.992   5.855
   898G11  C07B61357   9.257   5.945   5.897
   898G11  C07C61358   9.145   6.024   5.887
   898G11  C0FU61359   9.023   5.976   5.933
   898G11  C0F761360   8.911   6.057   5.919
   898G11  C0F661361   8.790   6.005   5.964
   898G11  C0F861362   8.677   6.084   5.957
   898G11  C0F961363   8.556   6.034   6.004
   898G11  C0FA61364   8.444   6.121   6.007
   898G11  C0FZ61365   8.457   6.250   5.960
   898G11  C0G061366   8.345   6.334   5.958
   898G11  C0GD61367   8.223   6.294   6.016
   898G11  C0FC61368   8.219   6.169   6.082
   898G11  C0GH61369   8.095   6.124   6.134
   898G11  C0EY61370   8.094   6.000   6.202
   898G11  C0EX61371   7.978   5.951   6.261
   898G11  C0EW61372   7.980   5.838   6.346
   898G11  C0FR61373   7.865   5.787   6.406
   898G11  H01D61374   7.861   5.700   6.469
   898G11  C0FS61375   7.745   5.852   6.379
   898G11  H01C61376   7.654   5.798   6.400
   898G11  C0GJ61377   7.742   5.968   6.299
   898G11  H01N61378   7.644   6.006   6.275
   898G11  C0EV61379   8.102   5.770   6.359
   898G11  C0FT61380   8.112   5.664   6.448
   898G11  H01E61381   8.047   5.651   6.533
   898G11  C0EU61382   8.199   5.801   6.271
   898G11  C0ET61383   8.306   5.711   6.249
   898G11  C0EI61384   8.423   5.740   6.187
   898G11  C0F161385   8.429   5.863   6.120
   898G11  C0F061386   8.320   5.953   6.131
   898G11  C0EH61387   8.532   5.647   6.189
   898G11  C0EG61388   8.526   5.516   6.246
   898G11  C0EJ61389   8.649   5.697   6.126
   898G11  C0F361390   8.657   5.823   6.065
   898G11  C0EK61391   8.760   5.617   6.131
   898G11  C0EL61392   8.760   5.483   6.182
   898G11  C0EM61393   8.891   5.417   6.183
   898G11  C0EN61394   9.001   5.488   6.165
   898G11  C07I61395   9.112   5.404   6.168
   898G11  C07461396   9.228   5.445   6.105
   898G11  C07361397   9.324   5.347   6.086
   898G11  C07261398   9.446   5.384   6.029
   898G11  C07561399   9.239   5.574   6.066
   898G11  C07661400   9.125   5.653   6.055
   898G11  C07861401   9.129   5.775   5.995
   898G11  C07G61402   9.355   5.612   6.009
   898G11  C07061403   9.362   5.736   5.957
   898G11  C07Z61404   9.075   5.271   6.184
   898G11  C07761405   9.002   5.609   6.099
   898G11  C0EO61406   8.884   5.672   6.084
   898G11  C0F461407   8.889   5.800   6.033
   898G11  C0EQ61408   8.309   5.594   6.320
   898G11  C0FQ61409   7.858   6.024   6.241
   898G11  C0GI61410   7.863   6.139   6.168
   898G11  H01L61411   7.764   6.179   6.152
   898G11  C0EZ61412   8.202   5.918   6.200
   898G11  C0GG61413   7.979   6.200   6.129
   898G11  C0GF61414   7.985   6.328   6.077
   898G11  H01M61415   7.905   6.398   6.060
   898G11  C0GE61416   8.105   6.367   6.017
   898G11  H01K61417   8.101   6.459   5.961
   898G11  O00J61418   8.354   6.467   5.918
   898G11  C0GA61419   8.466   6.506   5.853
   898G11  C0G961420   8.469   6.631   5.791
   898G11  H01H61421   8.382   6.694   5.781
   898G11  C0G861422   8.588   6.683   5.742
   898G11  C0G761423   8.597   6.810   5.675
   898G11  H01I61424   8.516   6.880   5.668
   898G11  O00I61425   8.718   6.860   5.633
   898G11  C0G661426   8.827   6.777   5.634
   898G11  H01J61427   8.911   6.813   5.576
   898G11  C02D61428   8.832   6.656   5.706
   898G11  C02C61429   8.950   6.577   5.722
   898G11  C01761430   9.079   6.630   5.683
   898G11  C01661431   9.195   6.550   5.701
   898G11  O00161432   9.102   6.758   5.628
   898G11  C01861433   9.225   6.813   5.600
   898G11  C00961434   9.337   6.726   5.606
   898G11  C00861435   9.474   6.762   5.562
   898G11  C00761436   9.536   6.869   5.495
   898G11  C00661437   9.479   6.997   5.474
   898G11  C00561438   9.545   7.109   5.412
   898G11  C00461439   9.681   7.120   5.356
   898G11  C00361440   9.795   7.025   5.350
   898G11  C00261441   9.908   7.056   5.266
   898G11  C00P61442  10.015   6.966   5.256
   898G11  C00O61443  10.126   6.989   5.168
   898G11  C00N61444  10.227   6.896   5.148
   898G11  C01061445  10.329   6.915   5.054
   898G11  C01161446  10.423   6.820   5.025
   898G11  C01Q61447  10.510   6.832   4.920
   898G11  C01U61448  10.511   6.952   4.845
   898G11  C01261449  10.417   7.058   4.875
   898G11  H00061450  10.416   7.157   4.830
   898G11  C01V61451  10.600   6.956   4.737
   898G11  H00761452  10.584   7.038   4.668
   898G11  O00561453  10.687   6.855   4.704
   898G11  C01W61454  10.681   6.739   4.782
   898G11  C03161455  10.757   6.629   4.740
   898G11  C03261456  10.725   6.501   4.787
   898G11  H00A61457  10.773   6.411   4.752
   898G11  C03361458  10.635   6.488   4.894
   898G11  H00B61459  10.610   6.390   4.933
   898G11  C01O61460  10.580   6.600   4.950
   898G11  C01N61461  10.510   6.587   5.066
   898G11  C01M61462  10.534   6.474   5.166
   898G11  C01L61463  10.594   6.334   5.196
   898G11  C01K61464  10.523   6.282   5.309
   898G11  C01Y61465  10.531   6.153   5.362
   898G11  C02I61466  10.623   6.065   5.309
   898G11  C02N61467  10.618   5.931   5.359
   898G11  C02M61468  10.697   5.831   5.297
   898G11  C02L61469  10.773   5.866   5.183
   898G11  C02K61470  10.779   6.004   5.143
   898G11  C02U61471  10.871   6.031   5.038
   898G11  C02V61472  10.929   5.927   4.961
   898G11  C03H61473  11.000   5.956   4.843
   898G11  H00C61474  11.018   6.058   4.816
   898G11  C02W61475  10.894   6.163   5.009
   898G11  C02X61476  10.807   6.257   5.067
   898G11  C02Y61477  10.871   6.375   5.045
   898G11  H00861478  10.830   6.467   5.083
   898G11  C02Z61479  10.972   6.353   4.938
   898G11  O00461480  11.018   6.428   4.856
   898G11  O00361481  10.992   6.223   4.934
   898G11  C02J61482  10.699   6.105   5.197
   898G11  C01Z61483  10.426   6.120   5.447
   898G11  C02061484  10.318   6.204   5.474
   898G11  C01I61485  10.319   6.330   5.428
   898G11  C01H61486  10.224   6.425   5.444
   898G11  C00K61487  10.227   6.546   5.373
   898G11  C01S61488  10.332   6.579   5.288
   898G11  C01461489  10.330   6.690   5.204
   898G11  C00J61490  10.120   6.635   5.382
   898G11  C00I61491  10.013   6.600   5.458
   898G11  C00H61492  10.005   6.476   5.519
   898G11  C00G61493   9.894   6.435   5.582
   898G11  C00S61494   9.910   6.688   5.471
   898G11  C00T61495   9.807   6.642   5.544
   898G11  C00U61496   9.695   6.725   5.547
   898G11  C00R61497   9.908   6.815   5.412
   898G11  C00L61498  10.124   6.765   5.319
   898G11  C02861499  10.112   6.392   5.507
   898G11  C02361500  10.102   6.264   5.563
   898G11  C02461501   9.989   6.220   5.627
   898G11  C02161502  10.205   6.174   5.545
   898G11  C02261503  10.199   6.050   5.606
   898G11  C02H61504  10.088   6.010   5.678
   898G11  C03061505  10.076   5.881   5.728
   898G11  C03461506  10.183   5.792   5.707
   898G11  C02P61507  10.304   5.964   5.583
   898G11  C02B61508  10.417   5.997   5.500
   898G11  C01J61509  10.426   6.368   5.344
   898G11  C01X61510  10.697   6.244   5.150
   898G11  C01T61511  10.431   6.481   5.266
   898G11  H00961512  10.825   6.646   4.657
   898G11  C01P61513  10.588   6.726   4.888
   898G11  C01R61514  10.432   6.700   5.103
   898G11  C00Z61515  10.324   7.037   4.978
   898G11  O00061516  10.241   7.139   5.011
   898G11  C00M61517  10.230   6.786   5.228
   898G11  C00Y61518  10.131   7.109   5.096
   898G11  C01361519  10.029   7.202   5.109
   898G11  H00161520  10.047   7.291   5.051
   898G11  C00Q61521  10.017   6.853   5.332
   898G11  C00161522   9.914   7.181   5.194
   898G11  C00061523   9.823   7.275   5.226
   898G11  H00661524   9.827   7.377   5.191
   898G11  C00W61525   9.794   6.899   5.412
   898G11  C01G61526   9.700   7.242   5.290
   898G11  H00561527   9.636   7.329   5.294
   898G11  C01C61528   9.448   7.215   5.419
   898G11  H00261529   9.454   7.317   5.384
   898G11  C01B61530   9.332   7.169   5.490
   898G11  C01D61531   9.209   7.237   5.513
   898G11  H00361532   9.201   7.342   5.491
   898G11  C01E61533   9.108   7.156   5.558
   898G11  H00461534   9.013   7.201   5.584
   898G11  O00261535   9.115   7.020   5.573
   898G11  C01A61536   9.347   7.033   5.517
   898G11  C00V61537   9.679   6.842   5.471
   898G11  C01961538   9.235   6.951   5.568
   898G11  C02E61539   8.941   6.446   5.766
   898G11  C0FX61540   8.817   6.397   5.807
   898G11  C0FW61541   8.810   6.268   5.862
   898G11  C0GB61542   8.704   6.475   5.802
   898G11  C0G361543   9.054   6.366   5.775
   898G11  C07H61544   9.045   6.235   5.827
   898G11  C0GC61545   8.706   6.604   5.744
   898G11  C0G261546   8.583   6.426   5.852
   898G11  C0G161547   8.574   6.295   5.907
   898G11  C0FB61548   8.325   6.082   6.073
   898G11  C0F261549   8.545   5.908   6.060
   898G11  C0FY61550   8.685   6.215   5.907
   898G11  C0F561551   8.779   5.875   6.022
   898G11  C0FV61552   8.920   6.186   5.870
   898G11  C07961553   9.013   5.851   5.988
   898G11  C07A61554   9.253   5.822   5.953
   898G11  C06Y61555   9.490   5.908   5.858
   898G11  C07D61556   9.157   6.155   5.840
   898G11  C01F61557   9.179   6.421   5.745
   898G11  C00A61558   9.324   6.599   5.670
   898G11  C00X61559   9.574   6.672   5.590
   898G11  C00F61560   9.792   6.516   5.591
   898G11  C02961561   9.531   6.304   5.741
   898G11  C02561562   9.885   6.307   5.638
   898G11  C06U61563   9.631   6.086   5.783
   898G11  C02A61564   9.980   6.095   5.681
   898G11  C05Y61565   9.957   5.833   5.776
   898G11  C05Z61566   9.950   5.699   5.810
   898G11  C06061567  10.054   5.612   5.790
   898G11  C06261568  10.038   5.472   5.809
   898G11  C06T61569   9.615   5.955   5.824
   898G11  C06A61570   9.827   5.650   5.851
   898G11  C06Z61571   9.480   5.778   5.908
   898G11  C06Q61572   9.462   5.517   5.992
   898G11  C06861573   9.815   5.518   5.885
   898G11  C06761574   9.920   5.427   5.866
   898G11  C06361575   9.864   5.022   5.973
   898G11  C06C61576   9.836   4.889   6.005
   898G11  C06D61577   9.920   4.788   5.976
   898G11  C06E61578   9.892   4.649   5.969
   898G11  C07Q61579   9.768   4.609   6.014
   898G11  C07P61580   9.682   4.704   6.060
   898G11  C07T61581   9.562   4.665   6.111
   898G11  C07U61582   9.461   4.762   6.141
   898G11  C07V61583   9.336   4.717   6.193
   898G11  C08461584   9.314   4.577   6.210
   898G11  C08C61585   9.417   4.489   6.184
   898G11  C08B61586   9.387   4.357   6.198
   898G11  C08A61587   9.485   4.265   6.156
   898G11  C08961588   9.603   4.296   6.094
   898G11  C08861589   9.691   4.200   6.047
   898G11  C08761590   9.806   4.239   5.977
   898G11  C08661591   9.833   4.376   5.967
   898G11  C08X61592   9.662   4.062   6.053
   898G11  C08T61593   9.521   4.031   6.094
   898G11  C08D61594   9.633   4.433   6.088
   898G11  C08U61595   9.443   4.132   6.140
   898G11  C08V61596   9.318   4.095   6.165
   898G11  C0CY61597   9.222   4.184   6.210
   898G11  C0CX61598   9.096   4.128   6.228
   898G11  C0CW61599   8.995   4.220   6.263
   898G11  C0CV61600   9.029   4.356   6.279
   898G11  C0D461601   9.154   4.403   6.251
   898G11  C0CU61602   8.921   4.443   6.303
   898G11  C0CT61603   8.785   4.406   6.306
   898G11  C0CS61604   8.758   4.267   6.301
   898G11  C0D661605   8.959   4.575   6.303
   898G11  C0EC61606   9.083   4.626   6.277
   898G11  C07X61607   9.106   4.765   6.265
   898G11  C0DL61608   8.852   4.668   6.317
   898G11  C0DK61609   8.870   4.804   6.285
   898G11  C0DN61610   8.753   4.859   6.268
   898G11  C0D861611   8.716   4.632   6.321
   898G11  C08W61612   9.300   3.957   6.150
   898G11  C0CQ61613   9.172   3.899   6.181
   898G11  C09361614   9.258   4.314   6.224
   898G11  C09261615   9.185   4.537   6.249
   898G11  C08561616   9.540   4.531   6.135
   898G11  C07S61617   9.748   4.474   6.025
   898G11  C06F61618   9.984   4.556   5.918
   898G11  C07O61619   9.711   4.845   6.047
   898G11  C07N61620   9.613   4.944   6.077
   898G11  C05D61621  10.047   4.829   5.935
   898G11  C05C61622  10.133   4.729   5.892
   898G11  C05N61623  10.239   4.798   5.839
   898G11  C05M61624  10.252   5.176   5.773
   898G11  C05I61625  10.148   5.387   5.780
   898G11  C06161626  10.172   5.659   5.741
   898G11  C02Q61627  10.289   5.842   5.635
   898G11  C02O61628  10.514   5.905   5.457
   898G11  C03Q61629  10.479   5.562   5.591
   898G11  C03O61630  10.573   5.366   5.489
   898G11  C03L61631  10.789   5.344   5.213
   898G11  C02S61632  10.693   5.690   5.328
   898G11  C02T61633  10.833   5.763   5.106
   898G11  C03K61634  10.855   5.374   5.087
   898G11  C03I61635  10.903   5.798   4.990
   898G11  C03G61636  11.041   5.859   4.750
   898G11  H00D61637  11.084   5.869   4.651
   898G11  C03J61638  10.962   5.462   4.838
   898G11  C03W61639  11.008   5.284   4.621
   898G11  C04I61640  10.972   5.102   4.759
   898G11  C04K61641  10.934   4.835   4.823
   898G11  C04N61642  10.886   4.705   4.856
   898G11  C04X61643  10.783   4.553   5.020
   898G11  C05061644  10.666   4.387   5.174
   898G11  C05W61645  10.663   4.593   5.365
   898G11  C05S61646  10.396   4.231   5.535
   898G11  C05R61647  10.515   4.551   5.633
   898G11  C05O61648  10.342   4.719   5.775
   898G11  C05B61649  10.105   4.593   5.882
   898G11  C05A61650  10.276   4.311   5.732
   898G11  C07R61651   9.952   4.419   5.911
   898G11  C08N61652   9.885   4.144   5.907
   898G11  C08M61653   9.856   4.003   5.917
   898G11  C08L61654   9.938   3.912   5.849
   898G11  C09161655  10.276   4.211   5.623
   898G11  C09K61656  10.154   3.904   5.462
   898G11  H00M61657  10.134   3.954   5.369
   898G11  C08K61658  10.037   3.964   5.761
   898G11  C09J61659  10.120   3.766   5.499
   898G11  C09I61660  10.051   3.653   5.442
   898G11  C09L61661  10.050   3.596   5.308
   898G11  H00N61662  10.104   3.636   5.223
   898G11  C09Q61663   9.986   3.479   5.294
   898G11  H00O61664   9.978   3.431   5.197
   898G11  O00B61665   9.920   3.415   5.402
   898G11  C09G61666   9.903   3.473   5.527
   898G11  C09F61667   9.814   3.404   5.614
   898G11  O00A61668   9.746   3.300   5.555
   898G11  C09P61669   9.673   3.223   5.637
   898G11  H00P61670   9.677   3.116   5.623
   898G11  C09O61671   9.593   3.287   5.735
   898G11  C09D61672   9.658   3.394   5.809
   898G11  C09C61673   9.607   3.456   5.929
   898G11  C09N61674   9.476   3.474   5.985
   898G11  C09T61675   9.358   3.416   5.933
   898G11  C09S61676   9.355   3.320   5.829
   898G11  C0CP61677   9.221   3.290   5.817
   898G11  C0CN61678   9.139   3.369   5.900
   898G11  C0CO61679   8.995   3.362   5.887
   898G11  H01461680   8.931   3.428   5.943
   898G11  C0CZ61681   8.948   3.277   5.787
   898G11  H01561682   8.841   3.275   5.768
   898G11  C0D061683   9.034   3.190   5.709
   898G11  C0G561684   8.996   3.101   5.604
   898G11  H01F61685   8.890   3.111   5.585
   898G11  C0G461686   9.080   3.026   5.536
   898G11  H01G61687   9.032   2.972   5.455
   898G11  O00H61688   9.219   3.013   5.563
   898G11  C0D261689   9.260   3.116   5.649
   898G11  C09V61690   9.404   3.146   5.666
   898G11  H00Q61691   9.469   3.087   5.603
   898G11  C0D161692   9.175   3.192   5.726
   898G11  C09R61693   9.454   3.253   5.749
   898G11  C09H61694   9.978   3.589   5.549
   898G11  C09E61695   9.786   3.447   5.754
   898G11  C09B61696   9.684   3.544   6.006
   898G11  C08Z61697   9.909   3.775   5.866
   898G11  C08O61698   9.746   3.958   6.000
   898G11  C09A61699   9.615   3.611   6.113
   898G11  C08S61700   9.432   3.916   6.100
   898G11  C09961701   9.476   3.568   6.100
   898G11  C09U61702   9.227   3.448   5.983
   898G11  C0BO61703   8.853   3.534   6.229
   898G11  C0CL61704   9.143   3.764   6.164
   898G11  C0D361705   9.068   3.990   6.220
   898G11  C0D561706   8.866   4.174   6.283
   898G11  C0BR61707   8.778   3.763   6.249
   898G11  C0BQ61708   8.756   3.625   6.252
   898G11  C0BL61709   8.696   3.354   6.278
   898G11  C0AF61710   8.454   3.257   6.329
   898G11  C0BH61711   8.390   3.625   6.300
   898G11  C0BG61712   8.290   3.716   6.328
   898G11  C0BD61713   8.131   3.531   6.359
   898G11  C0AG61714   8.324   3.224   6.352
   898G11  C0AI61715   8.190   3.051   6.453
   898G11  C0AV61716   7.999   3.004   6.634
   898G11  C0BB61717   7.862   3.289   6.440
   898G11  O00C61718   7.812   3.117   6.740
   898G11  C0BC61719   7.760   3.368   6.484
   898G11  C0B961720   8.005   3.482   6.391
   898G11  O00E61721   7.841   3.797   6.493
   898G11  C0CA61722   7.861   3.929   6.496
   898G11  O00F61723   7.772   4.012   6.534
   898G11  C0BF61724   8.158   3.667   6.362
   898G11  C0C561725   7.986   3.975   6.443
   898G11  C0C461726   8.008   4.115   6.431
   898G11  H01161727   7.930   4.185   6.458
   898G11  C0C861728   8.312   3.853   6.331
   898G11  C0C261729   8.134   4.162   6.386
   898G11  C0C361730   8.166   4.297   6.372
   898G11  C0DY61731   8.083   4.406   6.395
   898G11  H01661732   7.978   4.412   6.420
   898G11  C0DX61733   8.164   4.526   6.399
   898G11  C0DW61734   8.125   4.643   6.474
   898G11  C0BY61735   8.473   4.035   6.329
   898G11  C0DB61736   8.296   4.346   6.362
   898G11  C0CC61737   8.631   4.223   6.315
   898G11  C0D761738   8.681   4.496   6.319
   898G11  C0DZ61739   8.305   4.489   6.370
   898G11  C0DM61740   8.651   4.764   6.296
   898G11  C0DQ61741   8.317   4.786   6.400
   898G11  C0DV61742   8.192   4.763   6.455
   898G11  C0E061743   8.002   4.674   6.558
   898G11  C0FO61744   7.962   4.967   6.755
   898G11  C0E361745   7.977   4.629   6.695
   898G11  H01761746   8.032   4.545   6.735
   898G11  C0GV61747   7.963   4.931   6.890
   898G11  C0ES61748   8.049   5.079   6.720
   898G11  C0GQ61749   8.130   5.203   7.060
   898G11  C0FJ61750   8.231   5.509   6.870
   898G11  C0ED61751   8.211   5.311   6.666
   898G11  C0ER61752   8.219   5.575   6.423
   898G11  C0EP61753   8.406   5.500   6.323
   898G11  C0E661754   8.307   5.170   6.477
   898G11  C0DE61755   8.539   5.067   6.282
   898G11  C0EA61756   8.633   5.430   6.231
   898G11  C0DF61757   8.646   5.064   6.187
   898G11  C08061758   8.934   5.282   6.205
   898G11  C0DO61759   8.762   4.987   6.222
   898G11  C0DJ61760   8.999   4.855   6.266
   898G11  C07K61761   9.176   5.172   6.178
   898G11  C07W61762   9.238   4.811   6.222
   898G11  C08361763   9.486   4.899   6.125
   898G11  C07J61764   9.302   5.217   6.133
   898G11  C06O61765   9.551   5.296   6.014
   898G11  C06M61766   9.635   5.073   6.042
   908G11  C07161767   5.341   2.718   6.288
   908G11  C07L61768   5.301   2.717   6.148
   908G11  C07M61769   5.161   2.714   6.113
   908G11  C07Y61770   5.118   2.736   5.980
   908G11  C08161771   5.213   2.746   5.877
   908G11  C08261772   5.159   2.751   5.744
   908G11  C0DI61773   5.222   2.768   5.615
   908G11  C0DH61774   5.364   2.769   5.578
   908G11  C0DG61775   5.380   2.789   5.430
   908G11  C0E961776   5.475   2.740   5.337
   908G11  C0E861777   5.391   2.737   5.215
   908G11  C0E761778   5.437   2.752   5.074
   908G11  C0EB61779   5.580   2.759   5.042
   908G11  C0EF61780   5.634   2.797   4.915
   908G11  C0EE61781   5.586   2.893   4.822
   908G11  C0FD61782   5.670   2.999   4.780
   908G11  C0FE61783   5.799   3.027   4.843
   908G11  H01B61784   5.833   2.971   4.929
   908G11  C0FF61785   5.872   3.138   4.811
   908G11  H01A61786   5.968   3.147   4.860
   908G11  C0FG61787   5.829   3.215   4.704
   908G11  H01861788   5.884   3.302   4.672
   908G11  C0FH61789   5.701   3.198   4.646
   908G11  C0FI61790   5.646   3.286   4.549
   908G11  H01961791   5.700   3.371   4.509
   908G11  O00K61792   5.526   3.266   4.486
   908G11  C0FL61793   5.453   3.155   4.528
   908G11  C0FK61794   5.502   3.065   4.622
   908G11  C0FM61795   5.427   2.950   4.653
   908G11  C0FN61796   5.305   2.927   4.583
   908G11  C0FP61797   5.261   3.018   4.486
   908G11  C0GO61798   5.141   3.016   4.418
   908G11  C0GN61799   5.074   3.125   4.364
   908G11  C0GR61800   5.161   3.235   4.334
   908G11  C0GS61801   5.105   3.343   4.269
   908G11  H01Q61802   5.163   3.431   4.246
   908G11  C0GT61803   4.972   3.338   4.224
   908G11  H01O61804   4.936   3.428   4.175
   908G11  C0GU61805   4.892   3.228   4.256
   908G11  H01P61806   4.787   3.220   4.236
   908G11  O00L61807   5.287   3.233   4.378
   908G11  C0GM61808   4.941   3.117   4.327
   908G11  C0GL61809   4.873   3.003   4.370
   908G11  H01R61810   4.765   2.994   4.362
   908G11  C0GK61811   4.935   2.892   4.427
   908G11  C0GP61812   4.893   2.767   4.489
   908G11  C0E261813   5.012   2.695   4.529
   908G11  C0E161814   4.989   2.615   4.645
   908G11  C0DU61815   5.051   2.633   4.774
   908G11  C0DT61816   5.170   2.681   4.815
   908G11  C0E461817   5.249   2.752   4.734
   908G11  C0E561818   5.362   2.786   4.815
   908G11  C0DS61819   5.211   2.686   4.949
   908G11  C0DR61820   5.115   2.654   5.046
   908G11  C0DD61821   5.127   2.682   5.182
   908G11  C0DC61822   4.983   2.672   5.233
   908G11  C0DP61823   4.889   2.634   5.126
   908G11  C0DA61824   4.745   2.604   5.136
   908G11  C0D961825   4.650   2.602   5.252
   908G11  C0CR61826   4.513   2.560   5.239
   908G11  C0C061827   4.462   2.516   5.120
   908G11  C0BZ61828   4.332   2.472   5.092
   908G11  C0C161829   4.290   2.427   4.964
   908G11  C0C761830   4.158   2.383   4.943
   908G11  C0C661831   4.112   2.331   4.816
   908G11  C0C961832   3.979   2.299   4.797
   908G11  C0B861833   3.946   2.245   4.667
   908G11  C0B761834   3.813   2.198   4.646
   908G11  C0B661835   3.742   2.120   4.541
   908G11  C0B561836   3.804   2.028   4.457
   908G11  H00Z61837   3.908   2.004   4.438
   908G11  C0B461838   3.698   1.944   4.404
   908G11  H01061839   3.699   1.854   4.344
   908G11  C0B361840   3.572   1.988   4.464
   908G11  C0AP61841   3.451   1.944   4.533
   908G11  C0AQ61842   3.428   2.058   4.620
   908G11  C0AR61843   3.346   2.045   4.737
   908G11  C0AS61844   3.383   2.126   4.838
   908G11  C0AT61845   3.498   2.202   4.842
   908G11  C0BA61846   3.584   2.208   4.732
   908G11  C0AU61847   3.542   2.262   4.957
   908G11  C0BE61848   3.669   2.302   4.974
   908G11  C0BI61849   3.709   2.348   5.099
   908G11  C0BJ61850   3.619   2.360   5.205
   908G11  C0BK61851   3.657   2.410   5.327
   908G11  C0BW61852   3.793   2.434   5.353
   908G11  C0BV61853   3.887   2.416   5.253
   908G11  C0BU61854   4.020   2.461   5.270
   908G11  C0BX61855   4.109   2.452   5.164
   908G11  C0BT61856   4.057   2.489   5.402
   908G11  C0CD61857   4.190   2.519   5.426
   908G11  C0CB61858   4.281   2.522   5.317
   908G11  C0CE61859   4.230   2.547   5.555
   908G11  C0CK61860   4.137   2.539   5.664
   908G11  C0BS61861   4.000   2.521   5.635
   908G11  C0CJ61862   3.905   2.531   5.743
   908G11  C0BP61863   3.768   2.521   5.715
   908G11  C0CI61864   3.665   2.535   5.813
   908G11  C0CH61865   3.535   2.543   5.766
   908G11  H01261866   3.463   2.589   5.833
   908G11  C0BN61867   3.500   2.497   5.641
   908G11  C0CG61868   3.373   2.447   5.619
   908G11  C0CF61869   3.276   2.459   5.722
   908G11  H01361870   3.299   2.509   5.814
   908G11  O00G61871   3.167   2.372   5.723
   908G11  C0AA61872   3.146   2.290   5.615
   908G11  C0A961873   3.031   2.213   5.621
   908G11  H00U61874   2.963   2.210   5.705
   908G11  C0A861875   3.002   2.128   5.517
   908G11  H00V61876   2.913   2.072   5.544
   908G11  C0A761877   3.078   2.113   5.397
   908G11  C0A661878   3.195   2.206   5.390
   908G11  C0A561879   3.288   2.218   5.289
   908G11  C0A461880   3.257   2.154   5.164
   908G11  C0A361881   3.167   2.057   5.107
   908G11  C0A261882   3.078   1.978   5.181
   908G11  C0A161883   2.993   1.880   5.127
   908G11  C0A061884   2.982   1.811   4.993
   908G11  C09Z61885   2.878   1.714   4.985
   908G11  C09Y61886   2.865   1.650   4.860
   908G11  H00Y61887   2.788   1.575   4.849
   908G11  C09X61888   2.970   1.647   4.765
   908G11  C09W61889   2.959   1.547   4.662
   908G11  H00R61890   2.881   1.474   4.646
   908G11  C0AX61891   3.057   1.542   4.568
   908G11  H00S61892   3.049   1.467   4.491
   908G11  C0AW61893   3.158   1.635   4.572
   908G11  H00T61894   3.232   1.633   4.494
   908G11  C0AN61895   3.167   1.740   4.662
   908G11  C0AO61896   3.262   1.844   4.647
   908G11  C0AM61897   3.073   1.737   4.771
   908G11  C0B261898   2.788   1.677   5.087
   908G11  O00D61899   2.703   1.589   5.080
   908G11  C0B161900   2.791   1.749   5.207
   908G11  H00W61901   2.720   1.715   5.281
   908G11  C0AL61902   3.076   1.827   4.881
   908G11  C0AK61903   3.180   1.923   4.868
   908G11  C0B061904   2.896   1.843   5.220
   908G11  C0AZ61905   2.923   1.922   5.340
   908G11  H00X61906   2.866   1.899   5.429
   908G11  C0AJ61907   3.209   2.021   4.971
   908G11  C0AH61908   3.342   2.185   5.060
   908G11  C0AE61909   3.401   2.307   5.291
   908G11  C0AD61910   3.432   2.372   5.408
   908G11  C0AY61911   3.029   2.008   5.310
   908G11  C0AB61912   3.229   2.288   5.500
   908G11  C0AC61913   3.343   2.371   5.510
   908G11  C0BM61914   3.601   2.479   5.545
   908G11  C0CM61915   3.703   2.525   5.949
   908G11  C09M61916   3.842   2.552   5.981
   908G11  C09861917   3.854   2.614   6.113
   908G11  C08R61918   3.966   2.634   6.199
   908G11  C08Q61919   3.940   2.701   6.327
   908G11  C08P61920   3.994   2.702   6.460
   908G11  C08Y61921   3.908   2.734   6.567
   908G11  C09761922   3.769   2.716   6.549
   908G11  C09661923   3.716   2.652   6.652
   908G11  C09061924   3.808   2.672   6.758
   908G11  C09561925   3.807   2.602   6.884
   908G11  C09461926   3.894   2.620   6.990
   908G11  C08J61927   4.035   2.649   6.983
   908G11  C08I61928   4.109   2.584   7.080
   908G11  C08H61929   4.254   2.586   7.042
   908G11  C08G61930   4.257   2.630   6.900
   908G11  C08F61931   4.355   2.654   6.798
   908G11  C08E61932   4.495   2.665   6.837
   908G11  C05961933   4.545   2.674   6.972
   908G11  C05861934   4.684   2.698   6.990
   908G11  C05761935   4.753   2.684   7.112
   908G11  C05661936   4.671   2.664   7.228
   908G11  C05561937   4.538   2.670   7.224
   908G11  C05461938   4.485   2.603   7.335
   908G11  C05361939   4.598   2.543   7.404
   908G11  C05261940   4.604   2.430   7.501
   908G11  C05161941   4.484   2.364   7.552
   908G11  C05U61942   4.349   2.378   7.498
   908G11  C05T61943   4.299   2.448   7.380
   908G11  C06K61944   4.155   2.459   7.414
   908G11  H00J61945   4.089   2.528   7.364
   908G11  C06L61946   4.120   2.383   7.527
   908G11  H00I61947   4.020   2.381   7.569
   908G11  C05V61948   4.239   2.327   7.575
   908G11  C06J61949   4.257   2.237   7.678
   908G11  H00K61950   4.169   2.200   7.728
   908G11  C05X61951   4.383   2.208   7.726
   908G11  C06I61952   4.403   2.124   7.839
   908G11  H00L61953   4.311   2.076   7.870
   908G11  C04Z61954   4.533   2.104   7.905
   908G11  C06H61955   4.546   2.003   8.009
   908G11  H00H61956   4.462   1.954   8.055
   908G11  C04Y61957   4.679   1.976   8.044
   908G11  C06G61958   4.697   1.878   8.151
   908G11  O00961959   4.602   1.830   8.211
   908G11  O00861960   4.824   1.844   8.185
   908G11  C04P61961   4.934   1.890   8.119
   908G11  C04J61962   5.067   1.843   8.150
   908G11  C04Q61963   5.104   1.744   8.241
   908G11  H00E61964   5.030   1.689   8.298
   908G11  C04M61965   5.237   1.684   8.247
   908G11  C04R61966   5.278   1.574   8.328
   908G11  H00F61967   5.206   1.532   8.397
   908G11  C04S61968   5.410   1.536   8.331
   908G11  H00G61969   5.441   1.462   8.404
   908G11  O00761970   5.503   1.593   8.249
   908G11  C03V61971   5.468   1.696   8.162
   908G11  C03U61972   5.564   1.756   8.086
   908G11  O00661973   5.688   1.713   8.096
   908G11  C03F61974   5.789   1.769   8.024
   908G11  C03E61975   5.762   1.866   7.929
   908G11  C03D61976   5.631   1.918   7.915
   908G11  C03C61977   5.608   2.017   7.821
   908G11  C03B61978   5.720   2.062   7.748
   908G11  C03A61979   5.697   2.167   7.655
   908G11  C03961980   5.569   2.220   7.635
   908G11  C03861981   5.590   2.310   7.521
   908G11  C03761982   5.730   2.301   7.495
   908G11  C03661983   5.791   2.377   7.400
   908G11  C02R61984   5.920   2.365   7.349
   908G11  C03561985   5.914   2.447   7.234
   908G11  C03R61986   5.785   2.501   7.217
   908G11  C03S61987   5.731   2.526   7.088
   908G11  C04961988   5.598   2.548   7.080
   908G11  C04861989   5.517   2.505   7.193
   908G11  C03P61990   5.571   2.445   7.312
   908G11  C04761991   5.387   2.550   7.175
   908G11  C04661992   5.283   2.545   7.269
   908G11  C04561993   5.284   2.482   7.392
   908G11  C03T61994   5.380   2.404   7.463
   908G11  C04461995   5.311   2.351   7.572
   908G11  C04361996   5.191   2.418   7.585
   908G11  C04261997   5.095   2.337   7.651
   908G11  C04161998   5.186   2.231   7.706
   908G11  C04061999   5.145   2.128   7.792
   908G11  C03Z62000   5.231   2.049   7.877
   908G11  C04H62001   5.147   1.988   7.965
   908G11  C04G62002   5.016   2.030   7.945
   908G11  C03N62003   5.372   2.009   7.890
   908G11  C03Y62004   5.402   1.914   7.990
   908G11  C03X62005   5.307   1.855   8.078
   908G11  C04F62006   5.010   2.117   7.835
   908G11  C04E62007   4.882   2.170   7.805
   908G11  C04O62008   4.768   2.125   7.877
   908G11  C04D62009   4.858   2.274   7.708
   908G11  C04V62010   4.731   2.307   7.669
   908G11  C04W62011   4.617   2.248   7.730
   908G11  C04C62012   4.953   2.341   7.628
   908G11  C04L62013   4.871   2.428   7.545
   908G11  C04U62014   4.919   2.534   7.460
   908G11  C05Q62015   4.845   2.586   7.353
   908G11  C05P62016   4.931   2.636   7.251
   908G11  C04T62017   5.059   2.606   7.289
   908G11  C04B62018   5.055   2.536   7.410
   908G11  C03M62019   5.327   2.249   7.671
   908G11  C04A62020   5.169   2.484   7.467
   908G11  C05H62021   5.177   2.611   7.211
   908G11  C05G62022   5.208   2.656   7.081
   908G11  C05F62023   5.111   2.697   6.988
   908G11  C05E62024   5.125   2.697   6.848
   908G11  C05L62025   5.233   2.696   6.754
   908G11  C05K62026   5.370   2.667   6.797
   908G11  C05J62027   5.420   2.630   6.928
   908G11  C06662028   5.465   2.671   6.689
   908G11  C06562029   5.425   2.690   6.555
   908G11  C06462030   5.288   2.709   6.519
   908G11  C06N62031   5.520   2.698   6.450
   908G11  C06962032   5.651   2.671   6.480
   908G11  C06P62033   5.744   2.663   6.375
   908G11  C06R62034   5.875   2.620   6.392
   908G11  C06B62035   5.917   2.588   6.522
   908G11  C06S62036   6.050   2.546   6.545
   908G11  C02G62037   6.094   2.518   6.677
   908G11  C02F62038   6.220   2.468   6.697
   908G11  C02762039   6.312   2.450   6.591
   908G11  C02662040   6.430   2.385   6.614
   908G11  C00E62041   6.513   2.367   6.500
   908G11  C00D62042   6.631   2.299   6.519
   908G11  C00C62043   6.703   2.264   6.406
   908G11  C00B62044   6.666   2.288   6.277
   908G11  C01562045   6.549   2.361   6.261
   908G11  C07F62046   6.507   2.379   6.133
   908G11  C07E62047   6.380   2.434   6.114
   908G11  C06W62048   6.303   2.476   6.222
   908G11  C06V62049   6.348   2.456   6.351
   908G11  C06X62050   6.176   2.531   6.203
   908G11  C07B62051   6.133   2.551   6.070
   908G11  C07C62052   6.212   2.507   5.960
   908G11  C0FU62053   6.160   2.519   5.828
   908G11  C0F762054   6.233   2.474   5.721
   908G11  C0F662055   6.192   2.500   5.592
   908G11  C0F862056   6.278   2.469   5.486
   908G11  C0F962057   6.236   2.493   5.358
   908G11  C0FA62058   6.321   2.462   5.252
   908G11  C0FZ62059   6.436   2.397   5.277
   908G11  C0G062060   6.519   2.360   5.171
   908G11  C0GD62061   6.492   2.396   5.039
   908G11  C0FC62062   6.374   2.460   5.016
   908G11  C0GH62063   6.339   2.494   4.886
   908G11  C0EY62064   6.212   2.553   4.856
   908G11  C0EX62065   6.182   2.590   4.723
   908G11  C0EW62066   6.045   2.626   4.700
   908G11  C0FR62067   5.996   2.628   4.567
   908G11  H01D62068   5.889   2.628   4.553
   908G11  C0FS62069   6.085   2.628   4.459
   908G11  H01C62070   6.050   2.646   4.359
   908G11  C0GJ62071   6.223   2.606   4.484
   908G11  H01N62072   6.283   2.607   4.394
   908G11  C0EV62073   5.963   2.643   4.811
   908G11  C0FT62074   5.846   2.721   4.793
   908G11  H01E62075   5.809   2.768   4.703
   908G11  C0EU62076   5.997   2.608   4.942
   908G11  C0ET62077   5.911   2.626   5.048
   908G11  C0EI62078   5.937   2.611   5.178
   908G11  C0F162079   6.071   2.568   5.197
   908G11  C0F062080   6.163   2.546   5.095
   908G11  C0EH62081   5.845   2.637   5.280
   908G11  C0EG62082   5.710   2.684   5.255
   908G11  C0EJ62083   5.891   2.620   5.414
   908G11  C0F362084   6.022   2.569   5.437
   908G11  C0EK62085   5.805   2.656   5.521
   908G11  C0EL62086   5.669   2.701   5.500
   908G11  C0EM62087   5.602   2.729   5.627
   908G11  C0EN62088   5.675   2.735   5.750
   908G11  C07I62089   5.585   2.744   5.854
   908G11  C07462090   5.629   2.727   5.990
   908G11  C07362091   5.529   2.721   6.085
   908G11  C07262092   5.572   2.702   6.216
   908G11  C07562093   5.755   2.691   6.011
   908G11  C07662094   5.842   2.664   5.899
   908G11  C07862095   5.962   2.610   5.919
   908G11  C07G62096   5.794   2.669   6.143
   908G11  C07062097   5.924   2.626   6.160
   908G11  C07Z62098   5.453   2.748   5.815
   908G11  C07762099   5.800   2.686   5.768
   908G11  C0EO62100   5.863   2.649   5.652
   908G11  C0F462101   5.989   2.598   5.674
   908G11  C0EQ62102   5.790   2.681   5.025
   908G11  C0FQ62103   6.265   2.571   4.614
   908G11  C0GI62104   6.385   2.508   4.644
   908G11  H01L62105   6.461   2.490   4.569
   908G11  C0EZ62106   6.129   2.566   4.966
   908G11  C0GG62107   6.425   2.474   4.773
   908G11  C0GF62108   6.549   2.419   4.802
   908G11  H01M62109   6.613   2.400   4.718
   908G11  C0GE62110   6.581   2.378   4.937
   908G11  H01K62111   6.677   2.330   4.947
   908G11  O00J62112   6.632   2.289   5.189
   908G11  C0GA62113   6.657   2.244   5.313
   908G11  C0G962114   6.763   2.163   5.327
   908G11  H01H62115   6.806   2.125   5.236
   908G11  C0G862116   6.807   2.116   5.454
   908G11  C0G762117   6.916   2.029   5.484
   908G11  H01I62118   6.974   1.983   5.405
   908G11  O00I62119   6.956   1.990   5.608
   908G11  C0G662120   6.873   2.038   5.715
   908G11  H01J62121   6.886   1.998   5.815
   908G11  C02D62122   6.776   2.140   5.694
   908G11  C02C62123   6.711   2.204   5.804
   908G11  C01762124   6.769   2.202   5.936
   908G11  C01662125   6.695   2.254   6.045
   908G11  O00162126   6.895   2.151   5.958
   908G11  C01862127   6.929   2.100   6.077
   908G11  C00962128   6.857   2.150   6.189
   908G11  C00862129   6.884   2.119   6.328
   908G11  C00762130   6.973   2.025   6.395
   908G11  C00662131   7.061   1.938   6.333
   908G11  C00562132   7.144   1.847   6.401
   908G11  C00462133   7.135   1.803   6.539
   908G11  C00362134   7.057   1.843   6.652
   908G11  C00262135   7.056   1.765   6.774
   908G11  C00P62136   6.977   1.794   6.886
   908G11  C00O62137   6.978   1.712   6.999
   908G11  C00N62138   6.899   1.737   7.106
   908G11  C01062139   6.888   1.650   7.213
   908G11  C01162140   6.806   1.677   7.325
   908G11  C01Q62141   6.796   1.584   7.429
   908G11  C01U62142   6.863   1.457   7.419
   908G11  C01262143   6.945   1.438   7.303
   908G11  H00062144   7.003   1.347   7.301
   908G11  C01V62145   6.852   1.372   7.536
   908G11  H00762146   6.895   1.274   7.523
   908G11  O00562147   6.778   1.401   7.651
   908G11  C01W62148   6.714   1.519   7.646
   908G11  C03162149   6.647   1.554   7.766
   908G11  C03262150   6.576   1.675   7.775
   908G11  H00A62151   6.518   1.706   7.861
   908G11  C03362152   6.584   1.763   7.663
   908G11  H00B62153   6.540   1.861   7.669
   908G11  C01O62154   6.646   1.729   7.540
   908G11  C01N62155   6.642   1.815   7.434
   908G11  C01M62156   6.547   1.923   7.424
   908G11  C01L62157   6.413   1.969   7.479
   908G11  C01K62158   6.388   2.090   7.409
   908G11  C01Y62159   6.267   2.159   7.404
   908G11  C02I62160   6.165   2.115   7.490
   908G11  C02N62161   6.042   2.189   7.476
   908G11  C02M62162   5.941   2.156   7.576
   908G11  C02L62163   5.956   2.047   7.665
   908G11  C02K62164   6.074   1.973   7.661
   908G11  C02U62165   6.083   1.863   7.750
   908G11  C02V62166   5.990   1.842   7.852
   908G11  C03H62167   6.018   1.753   7.957
   908G11  H00C62168   6.118   1.719   7.976
   908G11  C02W62169   6.182   1.771   7.723
   908G11  C02X62170   6.272   1.795   7.625
   908G11  C02Y62171   6.327   1.667   7.602
   908G11  H00862172   6.399   1.637   7.527
   908G11  C02Z62173   6.281   1.574   7.707
   908G11  O00462174   6.314   1.457   7.730
   908G11  O00362175   6.187   1.645   7.773
   908G11  C02J62176   6.182   2.003   7.577
   908G11  C01Z62177   6.253   2.245   7.294
   908G11  C02062178   6.350   2.264   7.195
   908G11  C01I62179   6.477   2.202   7.211
   908G11  C01H62180   6.568   2.180   7.107
   908G11  C00K62181   6.667   2.083   7.113
   908G11  C01S62182   6.678   1.995   7.221
   908G11  C01462183   6.740   1.876   7.217
   908G11  C00J62184   6.748   2.057   7.002
   908G11  C00I62185   6.727   2.130   6.887
   908G11  C00H62186   6.625   2.224   6.880
   908G11  C00G62187   6.584   2.272   6.755
   908G11  C00S62188   6.809   2.103   6.778
   908G11  C00T62189   6.775   2.168   6.662
   908G11  C00U62190   6.848   2.138   6.549
   908G11  C00R62191   6.899   1.992   6.776
   908G11  C00L62192   6.833   1.947   7.008
   908G11  C02862193   6.541   2.244   6.988
   908G11  C02362194   6.419   2.319   6.972
   908G11  C02462195   6.385   2.370   6.848
   908G11  C02162196   6.327   2.326   7.076
   908G11  C02262197   6.206   2.383   7.054
   908G11  C02H62198   6.175   2.443   6.930
   908G11  C03062199   6.049   2.496   6.908
   908G11  C03462200   5.959   2.501   7.008
   908G11  C02P62201   6.112   2.377   7.155
   908G11  C02B62202   6.132   2.304   7.273
   908G11  C01J62203   6.494   2.119   7.321
   908G11  C01X62204   6.298   1.915   7.559
   908G11  C01T62205   6.580   2.014   7.327
   908G11  H00962206   6.656   1.485   7.849
   908G11  C01P62207   6.715   1.608   7.537
   908G11  C01R62208   6.729   1.792   7.324
   908G11  C00Z62209   6.959   1.527   7.205
   908G11  O00062210   7.038   1.500   7.096
   908G11  C00M62211   6.822   1.852   7.107
   908G11  C00Y62212   7.046   1.589   6.995
   908G11  C01362213   7.138   1.567   6.894
   908G11  H00162214   7.218   1.497   6.912
   908G11  C00Q62215   6.906   1.913   6.892
   908G11  C00162216   7.147   1.658   6.781
   908G11  C00062217   7.237   1.633   6.678
   908G11  H00662218   7.315   1.559   6.689
   908G11  C00W62219   6.964   1.952   6.658
   908G11  C01G62220   7.232   1.705   6.557
   908G11  H00562221   7.316   1.678   6.495
   908G11  C01C62222   7.225   1.788   6.299
   908G11  H00262223   7.305   1.716   6.300
   908G11  C01B62224   7.188   1.842   6.179
   908G11  C01D62225   7.233   1.806   6.052
   908G11  H00362226   7.305   1.727   6.034
   908G11  C01E62227   7.177   1.867   5.943
   908G11  H00462228   7.219   1.845   5.846
   908G11  O00262229   7.080   1.966   5.952
   908G11  C01A62230   7.088   1.936   6.191
   908G11  C00V62231   6.940   2.031   6.536
   908G11  C01962232   7.031   2.005   6.077
   908G11  C02E62233   6.598   2.283   5.783
   908G11  C0FX62234   6.556   2.300   5.657
   908G11  C0FW62235   6.438   2.369   5.638
   908G11  C0GB62236   6.621   2.244   5.547
   908G11  C0G362237   6.529   2.337   5.892
   908G11  C07H62238   6.407   2.400   5.876
   908G11  C0GC62239   6.737   2.168   5.563
   908G11  C0G262240   6.582   2.288   5.424
   908G11  C0G162241   6.473   2.366   5.403
   908G11  C0FB62242   6.288   2.491   5.119
   908G11  C0F262243   6.105   2.538   5.331
   908G11  C0FY62244   6.397   2.406   5.511
   908G11  C0F562245   6.066   2.551   5.569
   908G11  C0FV62246   6.363   2.411   5.748
   908G11  C07962247   6.037   2.581   5.806
   908G11  C07A62248   6.006   2.599   6.047
   908G11  C06Y62249   6.091   2.554   6.310
   908G11  C07D62250   6.333   2.448   5.984
   908G11  C01F62251   6.577   2.323   6.021
   908G11  C00A62252   6.744   2.236   6.170
   908G11  C00X62253   6.810   2.182   6.427
   908G11  C00F62254   6.668   2.253   6.645
   908G11  C02962255   6.469   2.397   6.371
   908G11  C02562256   6.469   2.345   6.742
   908G11  C06U62257   6.268   2.487   6.459
   908G11  C02A62258   6.263   2.432   6.825
   908G11  C05Y62259   6.003   2.533   6.781
   908G11  C05Z62260   5.873   2.575   6.756
   908G11  C06062261   5.779   2.575   6.861
   908G11  C06262262   5.642   2.604   6.839
   908G11  C06T62263   6.135   2.529   6.439
   908G11  C06A62264   5.826   2.606   6.627
   908G11  C06Z62265   5.963   2.603   6.289
   908G11  C06Q62266   5.706   2.684   6.245
   908G11  C06862267   5.692   2.648   6.609
   908G11  C06762268   5.597   2.640   6.710
   908G11  C06362269   5.188   2.706   6.619
   908G11  C06C62270   5.055   2.705   6.579
   908G11  C06D62271   4.955   2.706   6.669
   908G11  C06E62272   4.817   2.706   6.651
   908G11  C07Q62273   4.782   2.700   6.520
   908G11  C07P62274   4.877   2.698   6.420
   908G11  C07T62275   4.837   2.693   6.290
   908G11  C07U62276   4.934   2.698   6.188
   908G11  C07V62277   4.895   2.691   6.056
   908G11  C08462278   4.754   2.679   6.029
   908G11  C08C62279   4.661   2.662   6.135
   908G11  C08B62280   4.528   2.643   6.103
   908G11  C08A62281   4.447   2.624   6.210
   908G11  C08962282   4.475   2.654   6.337
   908G11  C08862283   4.373   2.664   6.434
   908G11  C08762284   4.407   2.683   6.569
   908G11  C08662285   4.543   2.683   6.599
   908G11  C08X62286   4.236   2.652   6.400
   908G11  C08T62287   4.203   2.607   6.264
   908G11  C08D62288   4.606   2.670   6.363
   908G11  C08U62289   4.314   2.599   6.182
   908G11  C08V62290   4.271   2.583   6.051
   908G11  C0CY62291   4.361   2.603   5.943
   908G11  C0CX62292   4.312   2.589   5.815
   908G11  C0CW62293   4.403   2.597   5.707
   908G11  C0CV62294   4.537   2.625   5.733
   908G11  C0D462295   4.581   2.644   5.866
   908G11  C0CU62296   4.625   2.639   5.629
   908G11  C0CT62297   4.592   2.614   5.497
   908G11  C0CS62298   4.458   2.584   5.472
   908G11  C0D662299   4.752   2.668   5.667
   908G11  C0EC62300   4.800   2.684   5.801
   908G11  C07X62301   4.935   2.707   5.825
   908G11  C0DL62302   4.836   2.696   5.563
   908G11  C0DK62303   4.971   2.732   5.591
   908G11  C0DN62304   5.029   2.746   5.472
   908G11  C0D862305   4.817   2.681   5.428
   908G11  C08W62306   4.135   2.568   6.043
   908G11  C0CQ62307   4.083   2.557   5.904
   908G11  C09362308   4.491   2.627   5.970
   908G11  C09262309   4.714   2.665   5.897
   908G11  C08562310   4.703   2.677   6.263
   908G11  C07S62311   4.643   2.689   6.497
   908G11  C06F62312   4.721   2.705   6.749
   908G11  C07O62313   5.013   2.703   6.446
   908G11  C07N62314   5.113   2.706   6.348
   908G11  C05D62315   4.994   2.708   6.803
   908G11  C05C62316   4.901   2.726   6.902
   908G11  C05N62317   4.972   2.705   7.018
   908G11  C05M62318   5.339   2.616   7.052
   908G11  C05I62319   5.551   2.595   6.950
   908G11  C06162320   5.826   2.536   6.985
   908G11  C02Q62321   5.997   2.442   7.129
   908G11  C02O62322   6.035   2.280   7.372
   908G11  C03Q62323   5.711   2.445   7.314
   908G11  C03O62324   5.510   2.386   7.430
   908G11  C03L62325   5.449   2.175   7.702
   908G11  C02S62326   5.799   2.203   7.563
   908G11  C02T62327   5.847   2.007   7.747
   908G11  C03K62328   5.472   2.066   7.800
   908G11  C03I62329   5.867   1.907   7.842
   908G11  C03G62330   5.920   1.718   8.043
   908G11  H00D62331   5.941   1.648   8.122
   908G11  C03J62332   5.531   1.863   7.995
   908G11  C03W62333   5.338   1.749   8.166
   908G11  C04I62334   5.175   1.893   8.071
   908G11  C04K62335   4.911   1.982   8.019
   908G11  C04N62336   4.787   2.030   7.979
   908G11  C04X62337   4.640   2.164   7.840
   908G11  C05062338   4.496   2.274   7.666
   908G11  C05W62339   4.729   2.395   7.563
   908G11  C05S62340   4.369   2.535   7.283
   908G11  C05R62341   4.711   2.595   7.338
   908G11  C05O62342   4.893   2.678   7.131
   908G11  C05B62343   4.761   2.714   6.874
   908G11  C05A62344   4.483   2.641   7.101
   908G11  C07R62345   4.586   2.686   6.731
   908G11  C08N62346   4.309   2.677   6.666
   908G11  C08M62347   4.169   2.680   6.633
   908G11  C08L62348   4.074   2.678   6.733
   908G11  C09162349   4.364   2.579   7.139
   908G11  C09K62350   4.028   2.471   7.117
   908G11  H00M62351   4.064   2.378   7.159
   908G11  C08K62352   4.123   2.657   6.866
   908G11  C09J62353   3.894   2.501   7.072
   908G11  C09I62354   3.776   2.428   7.040
   908G11  C09L62355   3.710   2.311   7.097
   908G11  H00N62356   3.763   2.267   7.181
   908G11  C09Q62357   3.600   2.268   7.033
   908G11  H00O62358   3.553   2.181   7.076
   908G11  O00B62359   3.541   2.334   6.925
   908G11  C09G62360   3.603   2.443   6.863
   908G11  C09F62361   3.535   2.487   6.738
   908G11  O00A62362   3.414   2.414   6.711
   908G11  C09P62363   3.346   2.455   6.597
   908G11  H00P62364   3.241   2.469   6.615
   908G11  C09O62365   3.420   2.476   6.473
   908G11  C09D62366   3.540   2.558   6.497
   908G11  C09C62367   3.623   2.619   6.390
   908G11  C09N62368   3.635   2.598   6.247
   908G11  C09T62369   3.582   2.490   6.178
   908G11  C09S62370   3.458   2.425   6.225
   908G11  C0CP62371   3.415   2.366   6.103
   908G11  C0CN62372   3.502   2.381   5.998
   908G11  C0CO62373   3.485   2.295   5.885
   908G11  H01462374   3.555   2.292   5.803
   908G11  C0CZ62375   3.364   2.229   5.879
   908G11  H01562376   3.336   2.181   5.787
   908G11  C0D062377   3.269   2.223   5.990
   908G11  C0G562378   3.143   2.142   5.989
   908G11  H01F62379   3.122   2.101   5.891
   908G11  C0G462380   3.071   2.125   6.101
   908G11  H01G62381   2.978   2.070   6.106
   908G11  O00H62382   3.101   2.190   6.226
   908G11  C0D262383   3.215   2.271   6.227
   908G11  C09V62384   3.277   2.326   6.347
   908G11  H00Q62385   3.223   2.302   6.438
   908G11  C0D162386   3.294   2.289   6.112
   908G11  C09R62387   3.389   2.415   6.351
   908G11  C09H62388   3.723   2.489   6.920
   908G11  C09E62389   3.592   2.574   6.635
   908G11  C09B62390   3.727   2.706   6.417
   908G11  C08Z62391   3.938   2.692   6.693
   908G11  C08O62392   4.133   2.674   6.496
   908G11  C09A62393   3.807   2.745   6.303
   908G11  C08S62394   4.091   2.580   6.175
   908G11  C09962395   3.750   2.673   6.195
   908G11  C09U62396   3.605   2.470   6.036
   908G11  C0BO62397   3.737   2.491   5.584
   908G11  C0CL62398   3.945   2.550   5.878
   908G11  C0D362399   4.177   2.566   5.793
   908G11  C0D562400   4.365   2.576   5.575
   908G11  C0BR62401   3.966   2.495   5.502
   908G11  C0BQ62402   3.834   2.472   5.483
   908G11  C0BL62403   3.564   2.425   5.426
   908G11  C0AF62404   3.492   2.314   5.188
   908G11  C0BH62405   3.840   2.388   5.123
   908G11  C0BG62406   3.932   2.367   5.019
   908G11  C0BD62407   3.755   2.292   4.865
   908G11  C0AG62408   3.459   2.264   5.066
   908G11  C0AI62409   3.316   2.107   4.953
   908G11  C0AV62410   3.261   1.935   4.752
   908G11  C0BB62411   3.535   2.151   4.615
   908G11  O00C62412   3.364   1.838   4.547
   908G11  C0BC62413   3.609   2.118   4.512
   908G11  C0B962414   3.719   2.236   4.742
   908G11  O00E62415   4.036   2.226   4.571
   908G11  C0CA62416   4.160   2.279   4.582
   908G11  O00F62417   4.233   2.284   4.484
   908G11  C0BF62418   3.888   2.322   4.893
   908G11  C0C562419   4.206   2.322   4.716
   908G11  C0C462420   4.341   2.358   4.732
   908G11  H01162421   4.406   2.359   4.646
   908G11  C0C862422   4.069   2.398   5.039
   908G11  C0C262423   4.378   2.414   4.860
   908G11  C0C362424   4.504   2.474   4.885
   908G11  C0DY62425   4.609   2.497   4.797
   908G11  H01662426   4.620   2.484   4.690
   908G11  C0DX62427   4.715   2.550   4.881
   908G11  C0DW62428   4.827   2.602   4.809
   908G11  C0BY62429   4.239   2.485   5.192
   908G11  C0DB62430   4.545   2.514   5.012
   908G11  C0CC62431   4.421   2.557   5.342
   908G11  C0D762432   4.684   2.631   5.394
   908G11  C0DZ62433   4.678   2.560   5.016
   908G11  C0DM62434   4.938   2.718   5.363
   908G11  C0DQ62435   4.982   2.631   5.012
   908G11  C0DV62436   4.953   2.622   4.876
   908G11  C0E062437   4.849   2.620   4.666
   908G11  C0FO62438   5.114   2.794   4.521
   908G11  C0E362439   4.789   2.721   4.582
   908G11  H01762440   4.699   2.775   4.607
   908G11  C0GV62441   5.072   2.894   4.439
   908G11  C0ES62442   5.224   2.814   4.607
   908G11  C0GQ62443   5.334   3.135   4.462
   908G11  C0FJ62444   5.623   3.084   4.686
   908G11  C0ED62445   5.460   2.873   4.766
   908G11  C0ER62446   5.760   2.733   4.903
   908G11  C0EP62447   5.692   2.708   5.115
   908G11  C0E662448   5.342   2.742   4.961
   908G11  C0DE62449   5.245   2.742   5.247
   908G11  C0EA62450   5.616   2.701   5.364
   908G11  C0DF62451   5.250   2.792   5.377
   908G11  C08062452   5.466   2.757   5.669
   908G11  C0DO62453   5.162   2.769   5.482
   908G11  C0DJ62454   5.019   2.727   5.724
   908G11  C07K62455   5.349   2.747   5.916
   908G11  C07W62456   4.981   2.710   5.953
   908G11  C08362457   5.069   2.704   6.213
   908G11  C07J62458   5.392   2.735   6.051
   908G11  C06O62459   5.477   2.704   6.317
   908G11  C06M62460   5.248   2.713   6.388
   918G11  C07162461   9.077   0.761   8.830
   918G11  C07L62462   9.128   0.889   8.838
   918G11  C07M62463   9.234   0.924   8.755
   918G11  C07Y62464   9.284   1.056   8.758
   918G11  C08162465   9.225   1.158   8.839
   918G11  C08262466   9.282   1.289   8.833
   918G11  C0DI62467   9.229   1.411   8.892
   918G11  C0DH62468   9.118   1.445   8.981
   918G11  C0DG62469   9.114   1.585   9.027
   918G11  C0E962470   9.003   1.681   9.045
   918G11  C0E862471   9.061   1.810   8.989
   918G11  C0E762472   9.023   1.944   9.014
   918G11  C0EB62473   8.898   1.971   9.089
   918G11  C0EF62474   8.860   2.102   9.131
   918G11  C0EE62475   8.924   2.209   9.197
   918G11  C0FD62476   8.875   2.262   9.321
   918G11  C0FE62477   8.788   2.193   9.408
   918G11  H01B62478   8.732   2.109   9.370
   918G11  C0FF62479   8.747   2.252   9.529
   918G11  H01A62480   8.663   2.213   9.585
   918G11  C0FG62481   8.809   2.372   9.571
   918G11  H01862482   8.780   2.416   9.666
   918G11  C0FH62483   8.908   2.438   9.490
   918G11  C0FI62484   8.990   2.550   9.527
   918G11  H01962485   8.979   2.594   9.626
   918G11  O00K62486   9.093   2.601   9.454
   918G11  C0FL62487   9.103   2.553   9.330
   918G11  C0FK62488   9.027   2.446   9.280
   918G11  C0FM62489   9.071   2.389   9.157
   918G11  C0FN62490   9.146   2.470   9.070
   918G11  C0FP62491   9.204   2.589   9.113
   918G11  C0GO62492   9.291   2.663   9.040
   918G11  C0GN62493   9.382   2.748   9.087
   918G11  C0GR62494   9.363   2.785   9.225
   918G11  C0GS62495   9.437   2.889   9.282
   918G11  H01Q62496   9.435   2.919   9.385
   918G11  C0GT62497   9.531   2.951   9.200
   918G11  H01O62498   9.597   3.023   9.247
   918G11  C0GU62499   9.557   2.914   9.068
   918G11  H01P62500   9.629   2.978   9.019
   918G11  O00L62501   9.258   2.732   9.295
   918G11  C0GM62502   9.480   2.813   9.005
   918G11  C0GL62503   9.501   2.751   8.875
   918G11  H01R62504   9.581   2.788   8.813
   918G11  C0GK62505   9.405   2.666   8.822
   918G11  C0GP62506   9.397   2.579   8.711
   918G11  C0E262507   9.268   2.511   8.715
   918G11  C0E162508   9.286   2.385   8.647
   918G11  C0DU62509   9.272   2.255   8.703
   918G11  C0DT62510   9.197   2.211   8.811
   918G11  C0E462511   9.153   2.290   8.909
   918G11  C0E562512   9.089   2.207   9.003
   918G11  C0DS62513   9.182   2.080   8.860
   918G11  C0DR62514   9.265   1.990   8.793
   918G11  C0DD62515   9.265   1.851   8.807
   918G11  C0DC62516   9.385   1.810   8.727
   918G11  C0DP62517   9.440   1.919   8.650
   918G11  C0DA62518   9.559   1.927   8.565
   918G11  C0D962519   9.633   1.815   8.496
   918G11  C0CR62520   9.732   1.846   8.397
   918G11  C0C062521   9.793   1.966   8.397
   918G11  C0BZ62522   9.896   2.005   8.314
   918G11  C0C162523   9.954   2.130   8.319
   918G11  C0C762524  10.061   2.167   8.238
   918G11  C0C662525  10.129   2.290   8.251
   918G11  C0C962526  10.238   2.318   8.166
   918G11  C0B862527  10.317   2.433   8.189
   918G11  C0B762528  10.430   2.456   8.111
   918G11  C0B662529  10.536   2.558   8.131
   918G11  C0B562530  10.593   2.584   8.259
   918G11  H00Z62531  10.557   2.558   8.358
   918G11  C0B462532  10.737   2.606   8.234
   918G11  H01062533  10.817   2.610   8.307
   918G11  C0B362534  10.757   2.612   8.093
   918G11  C0AP62535  10.855   2.557   8.003
   918G11  C0AQ62536  10.780   2.495   7.897
   918G11  C0AR62537  10.833   2.387   7.828
   918G11  C0AS62538  10.743   2.302   7.786
   918G11  C0AT62539  10.608   2.301   7.822
   918G11  C0BA62540  10.563   2.390   7.910
   918G11  C0AU62541  10.528   2.188   7.809
   918G11  C0BE62542  10.410   2.168   7.884
   918G11  C0BI62543  10.350   2.043   7.872
   918G11  C0BJ62544  10.402   1.942   7.784
   918G11  C0BK62545  10.326   1.824   7.766
   918G11  C0BW62546  10.210   1.803   7.844
   918G11  C0BV62547  10.176   1.893   7.945
   918G11  C0BU62548  10.080   1.859   8.035
   918G11  C0BX62549  10.043   1.947   8.134
   918G11  C0BT62550  10.024   1.734   8.033
   918G11  C0CD62551   9.943   1.693   8.136
   918G11  C0CB62552   9.891   1.786   8.223
   918G11  C0CE62553   9.895   1.563   8.134
   918G11  C0CK62554   9.922   1.473   8.031
   918G11  C0BS62555  10.001   1.515   7.926
   918G11  C0CJ62556  10.030   1.425   7.823
   918G11  C0BP62557  10.123   1.461   7.727
   918G11  C0CI62558  10.150   1.386   7.611
   918G11  C0CH62559  10.271   1.410   7.547
   918G11  H01262560  10.293   1.351   7.459
   918G11  C0BN62561  10.355   1.515   7.582
   918G11  C0CG62562  10.490   1.522   7.546
   918G11  C0CF62563  10.557   1.408   7.483
   918G11  H01362564  10.507   1.312   7.480
   918G11  O00G62565  10.685   1.409   7.438
   918G11  C0AA62566  10.760   1.523   7.474
   918G11  C0A962567  10.894   1.514   7.432
   918G11  H00U62568  10.925   1.420   7.388
   918G11  C0A862569  10.978   1.621   7.467
   918G11  H00V62570  11.076   1.590   7.433
   918G11  C0A762571  10.933   1.732   7.533
   918G11  C0A662572  10.787   1.750   7.563
   918G11  C0A562573  10.725   1.863   7.621
   918G11  C0A462574  10.796   1.990   7.638
   918G11  C0A362575  10.931   2.036   7.634
   918G11  C0A262576  11.037   1.943   7.651
   918G11  C0A162577  11.177   1.991   7.664
   918G11  C0A062578  11.234   2.114   7.718
   918G11  C09Z62579  11.374   2.114   7.711
   918G11  C09Y62580  11.443   2.200   7.797
   918G11  H00Y62581  11.551   2.192   7.796
   918G11  C09X62582  11.376   2.284   7.882
   918G11  C09W62583  11.449   2.356   7.977
   918G11  H00R62584  11.557   2.346   7.980
   918G11  C0AX62585  11.389   2.437   8.071
   918G11  H00S62586  11.438   2.498   8.145
   918G11  C0AW62587  11.258   2.462   8.053
   918G11  H00T62588  11.204   2.526   8.121
   918G11  C0AN62589  11.179   2.402   7.955
   918G11  C0AO62590  11.045   2.431   7.931
   918G11  C0AM62591  11.239   2.298   7.878
   918G11  C0B262592  11.456   2.032   7.630
   918G11  O00D62593  11.581   2.043   7.620
   918G11  C0B162594  11.399   1.918   7.573
   918G11  H00W62595  11.471   1.851   7.528
   918G11  C0AL62596  11.162   2.213   7.788
   918G11  C0AK62597  11.027   2.245   7.775
   918G11  C0B062598  11.262   1.905   7.586
   918G11  C0AZ62599  11.180   1.798   7.536
   918G11  H00X62600  11.221   1.717   7.478
   918G11  C0AJ62601  10.932   2.165   7.703
   918G11  C0AH62602  10.713   2.092   7.684
   918G11  C0AE62603  10.593   1.850   7.665
   918G11  C0AD62604  10.515   1.736   7.647
   918G11  C0AY62605  11.041   1.817   7.580
   918G11  C0AB62606  10.703   1.640   7.534
   918G11  C0AC62607  10.568   1.632   7.576
   918G11  C0BM62608  10.309   1.611   7.671
   918G11  C0CM62609  10.060   1.286   7.583
   918G11  C09M62610  10.008   1.215   7.695
   918G11  C09862611  10.002   1.075   7.686
   918G11  C08R62612   9.939   0.978   7.767
   918G11  C08Q62613   9.956   0.843   7.730
   918G11  C08P62614   9.875   0.717   7.736
   918G11  C08Y62615   9.882   0.638   7.614
   918G11  C09762616   9.946   0.674   7.499
   918G11  C09662617   9.886   0.636   7.386
   918G11  C09062618   9.813   0.521   7.435
   918G11  C09562619   9.727   0.440   7.358
   918G11  C09462620   9.648   0.327   7.403
   918G11  C08J62621   9.609   0.299   7.539
   918G11  C08I62622   9.478   0.242   7.528
   918G11  C08H62623   9.409   0.263   7.658
   918G11  C08G62624   9.498   0.363   7.733
   918G11  C08F62625   9.503   0.417   7.869
   918G11  C08E62626   9.442   0.356   7.978
   918G11  C05962627   9.378   0.228   7.979
   918G11  C05862628   9.324   0.172   8.096
   918G11  C05762629   9.256   0.050   8.108
   918G11  C05662630   9.266  -0.032   7.992
   918G11  C05562631   9.322   0.010   7.880
   918G11  C05462632   9.273  -0.069   7.765
   918G11  C05362633   9.165  -0.151   7.823
   918G11  C05262634   9.055  -0.221   7.760
   918G11  C05162635   9.043  -0.208   7.614
   918G11  C05U62636   9.116  -0.117   7.523
   918G11  C05T62637   9.213  -0.008   7.535
   918G11  C06K62638   9.287  -0.005   7.409
   918G11  H00J62639   9.388   0.033   7.404
   918G11  C06L62640   9.233  -0.092   7.312
   918G11  H00I62641   9.272  -0.108   7.213
   918G11  C05V62642   9.127  -0.155   7.382
   918G11  C06J62643   9.043  -0.243   7.323
   918G11  H00K62644   9.032  -0.257   7.217
   918G11  C05X62645   8.948  -0.307   7.401
   918G11  C06I62646   8.840  -0.385   7.352
   918G11  H00L62647   8.834  -0.394   7.244
   918G11  C04Z62648   8.730  -0.438   7.428
   918G11  C06H62649   8.618  -0.489   7.354
   918G11  H00H62650   8.612  -0.491   7.246
   918G11  C04Y62651   8.514  -0.541   7.436
   918G11  C06G62652   8.393  -0.582   7.371
   918G11  O00962653   8.360  -0.558   7.254
   918G11  O00862654   8.299  -0.652   7.450
   918G11  C04P62655   8.312  -0.661   7.585
   918G11  C04J62656   8.210  -0.707   7.668
   918G11  C04Q62657   8.085  -0.759   7.627
   918G11  H00E62658   8.080  -0.775   7.520
   918G11  C04M62659   7.976  -0.775   7.714
   918G11  C04R62660   7.847  -0.819   7.677
   918G11  H00F62661   7.828  -0.838   7.573
   918G11  C04S62662   7.753  -0.848   7.769
   918G11  H00G62663   7.661  -0.897   7.738
   918G11  O00762664   7.767  -0.823   7.902
   918G11  C03V62665   7.889  -0.778   7.942
   918G11  C03U62666   7.916  -0.774   8.076
   918G11  O00662667   7.814  -0.817   8.156
   918G11  C03F62668   7.822  -0.790   8.288
   918G11  C03E62669   7.929  -0.723   8.341
   918G11  C03D62670   8.042  -0.692   8.262
   918G11  C03C62671   8.155  -0.623   8.311
   918G11  C03B62672   8.137  -0.577   8.440
   918G11  C03A62673   8.245  -0.510   8.499
   918G11  C03962674   8.356  -0.468   8.417
   918G11  C03862675   8.429  -0.377   8.502
   918G11  C03762676   8.344  -0.368   8.615
   918G11  C03662677   8.374  -0.284   8.711
   918G11  C02R62678   8.294  -0.248   8.816
   918G11  C03562679   8.358  -0.134   8.859
   918G11  C03R62680   8.477  -0.106   8.793
   918G11  C03S62681   8.545   0.012   8.794
   918G11  C04962682   8.645   0.024   8.702
   918G11  C04862683   8.657  -0.084   8.614
   918G11  C03P62684   8.577  -0.200   8.594
   918G11  C04762685   8.778  -0.074   8.546
   918G11  C04662686   8.823  -0.152   8.442
   918G11  C04562687   8.774  -0.268   8.381
   918G11  C03T62688   8.651  -0.335   8.401
   918G11  C04462689   8.628  -0.427   8.296
   918G11  C04362690   8.745  -0.427   8.213
   918G11  C04262691   8.721  -0.465   8.079
   918G11  C04162692   8.577  -0.502   8.094
   918G11  C04062693   8.500  -0.547   7.987
   918G11  C03Z62694   8.370  -0.606   7.997
   918G11  C04H62695   8.343  -0.637   7.864
   918G11  C04G62696   8.447  -0.602   7.781
   918G11  C03N62697   8.260  -0.626   8.089
   918G11  C03Y62698   8.140  -0.683   8.038
   918G11  C03X62699   8.115  -0.711   7.900
   918G11  C04F62700   8.545  -0.540   7.856
   918G11  C04E62701   8.655  -0.489   7.783
   918G11  C04O62702   8.644  -0.485   7.642
   918G11  C04D62703   8.772  -0.433   7.836
   918G11  C04V62704   8.862  -0.365   7.752
   918G11  C04W62705   8.857  -0.364   7.612
   918G11  C04C62706   8.814  -0.426   7.969
   918G11  C04L62707   8.938  -0.352   7.964
   918G11  C04U62708   8.997  -0.284   8.073
   918G11  C05Q62709   9.087  -0.175   8.066
   918G11  C05P62710   9.089  -0.103   8.186
   918G11  C04T62711   8.985  -0.146   8.264
   918G11  C04B62712   8.932  -0.258   8.199
   918G11  C03M62713   8.519  -0.489   8.227
   918G11  C04A62714   8.825  -0.323   8.259
   918G11  C05H62715   8.932  -0.092   8.382
   918G11  C05G62716   8.969   0.030   8.455
   918G11  C05F62717   9.077   0.116   8.433
   918G11  C05E62718   9.094   0.244   8.490
   918G11  C05L62719   9.037   0.327   8.595
   918G11  C05K62720   8.917   0.283   8.667
   918G11  C05J62721   8.836   0.157   8.645
   918G11  C06662722   8.873   0.381   8.763
   918G11  C06562723   8.951   0.501   8.792
   918G11  C06462724   9.063   0.540   8.712
   918G11  C06N62725   8.901   0.593   8.890
   918G11  C06962726   8.784   0.563   8.957
   918G11  C06P62727   8.728   0.658   9.042
   918G11  C06R62728   8.610   0.624   9.120
   918G11  C06B62729   8.554   0.499   9.111
   918G11  C06S62730   8.444   0.469   9.190
   918G11  C02G62731   8.391   0.346   9.183
   918G11  C02F62732   8.278   0.319   9.263
   918G11  C02762733   8.224   0.411   9.340
   918G11  C02662734   8.112   0.380   9.417
   918G11  C00E62735   8.056   0.476   9.498
   918G11  C00D62736   7.940   0.448   9.566
   918G11  C00C62737   7.886   0.548   9.640
   918G11  C00B62738   7.923   0.680   9.638
   918G11  C01562739   8.035   0.704   9.569
   918G11  C07F62740   8.079   0.837   9.556
   918G11  C07E62741   8.187   0.868   9.482
   918G11  C06W62742   8.258   0.767   9.414
   918G11  C06V62743   8.214   0.638   9.417
   918G11  C06X62744   8.374   0.792   9.347
   918G11  C07B62745   8.427   0.918   9.339
   918G11  C07C62746   8.350   1.019   9.395
   918G11  C0FU62747   8.393   1.152   9.379
   918G11  C0F762748   8.313   1.256   9.421
   918G11  C0F662749   8.346   1.387   9.390
   918G11  C0F862750   8.256   1.486   9.419
   918G11  C0F962751   8.285   1.620   9.392
   918G11  C0FA62752   8.192   1.718   9.420
   918G11  C0FZ62753   8.080   1.687   9.490
   918G11  C0G062754   7.980   1.786   9.514
   918G11  C0GD62755   7.991   1.916   9.471
   918G11  C0FC62756   8.114   1.952   9.401
   918G11  C0GH62757   8.131   2.078   9.349
   918G11  C0EY62758   8.254   2.113   9.293
   918G11  C0EX62759   8.274   2.243   9.249
   918G11  C0EW62760   8.396   2.280   9.195
   918G11  C0FR62761   8.420   2.410   9.150
   918G11  H01D62762   8.516   2.446   9.115
   918G11  C0FS62763   8.322   2.503   9.159
   918G11  H01C62764   8.337   2.604   9.124
   918G11  C0GJ62765   8.200   2.474   9.216
   918G11  H01N62766   8.127   2.553   9.224
   918G11  C0EV62767   8.491   2.180   9.181
   918G11  C0FT62768   8.628   2.209   9.148
   918G11  H01E62769   8.671   2.308   9.141
   918G11  C0EU62770   8.468   2.043   9.212
   918G11  C0ET62771   8.557   1.934   9.194
   918G11  C0EI62772   8.547   1.807   9.238
   918G11  C0F162773   8.427   1.779   9.296
   918G11  C0F062774   8.329   1.883   9.313
   918G11  C0EH62775   8.650   1.714   9.207
   918G11  C0EG62776   8.774   1.746   9.145
   918G11  C0EJ62777   8.626   1.582   9.238
   918G11  C0F362778   8.498   1.549   9.295
   918G11  C0EK62779   8.721   1.482   9.211
   918G11  C0EL62780   8.847   1.504   9.143
   918G11  C0EM62781   8.922   1.380   9.121
   918G11  C0EN62782   8.872   1.258   9.151
   918G11  C07I62783   8.945   1.159   9.091
   918G11  C07462784   8.898   1.025   9.083
   918G11  C07362785   8.960   0.944   8.997
   918G11  C07262786   8.904   0.818   8.990
   918G11  C07562787   8.783   0.999   9.151
   918G11  C07662788   8.708   1.102   9.203
   918G11  C07862789   8.585   1.077   9.261
   918G11  C07G62790   8.725   0.875   9.145
   918G11  C07062791   8.608   0.844   9.207
   918G11  C07Z62792   9.049   1.212   9.013
   918G11  C07762793   8.745   1.236   9.204
   918G11  C0EO62794   8.670   1.348   9.237
   918G11  C0F462795   8.550   1.315   9.291
   918G11  C0EQ62796   8.680   1.971   9.145
   918G11  C0FQ62797   8.179   2.341   9.266
   918G11  C0GI62798   8.058   2.302   9.327
   918G11  H01L62799   7.972   2.367   9.333
   918G11  C0EZ62800   8.350   2.012   9.271
   918G11  C0GG62801   8.034   2.178   9.375
   918G11  C0GF62802   7.914   2.141   9.436
   918G11  H01M62803   7.851   2.223   9.466
   918G11  C0GE62804   7.891   2.010   9.478
   918G11  H01K62805   7.793   1.990   9.518
   918G11  O00J62806   7.866   1.756   9.589
   918G11  C0GA62807   7.853   1.634   9.637
   918G11  C0G962808   7.744   1.611   9.720
   918G11  H01H62809   7.686   1.701   9.737
   918G11  C0G862810   7.727   1.483   9.787
   918G11  C0G762811   7.633   1.453   9.890
   918G11  H01I62812   7.581   1.540   9.929
   918G11  O00I62813   7.621   1.328   9.949
   918G11  C0G662814   7.699   1.230   9.902
   918G11  H01J62815   7.695   1.137   9.957
   918G11  C02D62816   7.789   1.250   9.792
   918G11  C02C62817   7.854   1.145   9.727
   918G11  C01762818   7.810   1.008   9.743
   918G11  C01662819   7.884   0.903   9.686
   918G11  O00162820   7.695   0.979   9.812
   918G11  C01862821   7.641   0.852   9.821
   918G11  C00962822   7.715   0.744   9.771
   918G11  C00862823   7.681   0.603   9.773
   918G11  C00762824   7.562   0.526   9.798
   918G11  C00662825   7.450   0.582   9.861
   918G11  C00562826   7.341   0.497   9.898
   918G11  C00462827   7.316   0.353   9.887
   918G11  C00362828   7.379   0.248   9.801
   918G11  C00262829   7.312   0.121   9.776
   918G11  C00P62830   7.360   0.035   9.675
   918G11  C00O62831   7.291  -0.080   9.633
   918G11  C00N62832   7.339  -0.166   9.538
   918G11  C01062833   7.264  -0.277   9.506
   918G11  C01162834   7.310  -0.365   9.399
   918G11  C01Q62835   7.243  -0.483   9.373
   918G11  C01U62836   7.123  -0.512   9.445
   918G11  C01262837   7.084  -0.425   9.548
   918G11  H00062838   6.989  -0.446   9.594
   918G11  C01V62839   7.052  -0.624   9.403
   918G11  H00762840   6.954  -0.641   9.445
   918G11  O00562841   7.090  -0.707   9.297
   918G11  C01W62842   7.203  -0.666   9.229
   918G11  C03162843   7.226  -0.724   9.100
   918G11  C03262844   7.328  -0.685   9.022
   918G11  H00A62845   7.339  -0.734   8.927
   918G11  C03362846   7.402  -0.570   9.056
   918G11  H00B62847   7.468  -0.528   8.982
   918G11  C01O62848   7.390  -0.519   9.187
   918G11  C01N62849   7.481  -0.428   9.232
   918G11  C01M62850   7.615  -0.404   9.169
   918G11  C01L62851   7.717  -0.442   9.058
   918G11  C01K62852   7.827  -0.354   9.082
   918G11  C01Y62853   7.937  -0.323   8.995
   918G11  C02I62854   7.957  -0.402   8.885
   918G11  C02N62855   8.074  -0.370   8.809
   918G11  C02M62856   8.098  -0.451   8.695
   918G11  C02L62857   8.005  -0.548   8.650
   918G11  C02K62858   7.893  -0.580   8.732
   918G11  C02U62859   7.804  -0.676   8.682
   918G11  C02V62860   7.811  -0.727   8.557
   918G11  C03H62861   7.706  -0.805   8.493
   918G11  H00C62862   7.619  -0.842   8.546
   918G11  C02W62863   7.713  -0.717   8.770
   918G11  C02X62864   7.687  -0.650   8.886
   918G11  C02Y62865   7.611  -0.739   8.965
   918G11  H00862866   7.601  -0.727   9.071
   918G11  C02Z62867   7.575  -0.856   8.881
   918G11  O00462868   7.487  -0.935   8.895
   918G11  O00362869   7.649  -0.835   8.764
   918G11  C02J62870   7.863  -0.505   8.855
   918G11  C01Z62871   8.015  -0.215   9.033
   918G11  C02062872   7.987  -0.135   9.142
   918G11  C01I62873   7.874  -0.158   9.218
   918G11  C01H62874   7.820  -0.074   9.309
   918G11  C00K62875   7.697  -0.098   9.365
   918G11  C01S62876   7.623  -0.207   9.330
   918G11  C01462877   7.501  -0.236   9.382
   918G11  C00J62878   7.650  -0.003   9.457
   918G11  C00I62879   7.724   0.105   9.491
   918G11  C00H62880   7.850   0.125   9.441
   918G11  C00G62881   7.926   0.235   9.466
   918G11  C00S62882   7.678   0.196   9.580
   918G11  C00T62883   7.755   0.306   9.607
   918G11  C00U62884   7.699   0.397   9.690
   918G11  C00R62885   7.551   0.177   9.638
   918G11  C00L62886   7.531  -0.024   9.516
   918G11  C02862887   7.895   0.039   9.346
   918G11  C02362888   8.015   0.066   9.278
   918G11  C02462889   8.090   0.176   9.311
   918G11  C02162890   8.060  -0.025   9.180
   918G11  C02262891   8.173  -0.000   9.113
   918G11  C02H62892   8.242   0.118   9.135
   918G11  C03062893   8.356   0.147   9.065
   918G11  C03462894   8.392   0.068   8.966
   918G11  C02P62895   8.211  -0.083   9.012
   918G11  C02B62896   8.135  -0.189   8.967
   918G11  C01J62897   7.802  -0.266   9.183
   918G11  C01X62898   7.743  -0.533   8.941
   918G11  C01T62899   7.677  -0.294   9.233
   918G11  H00962900   7.154  -0.799   9.069
   918G11  C01P62901   7.281  -0.559   9.264
   918G11  C01R62902   7.433  -0.347   9.340
   918G11  C00Z62903   7.148  -0.309   9.580
   918G11  O00062904   7.115  -0.234   9.685
   918G11  C00M62905   7.455  -0.140   9.473
   918G11  C00Y62906   7.184  -0.123   9.713
   918G11  C01362907   7.145  -0.040   9.819
   918G11  H00162908   7.060  -0.083   9.869
   918G11  C00Q62909   7.479   0.067   9.607
   918G11  C00162910   7.202   0.085   9.852
   918G11  C00062911   7.165   0.174   9.952
   918G11  H00662912   7.089   0.140  10.020
   918G11  C00W62913   7.498   0.271   9.730
   918G11  C01G62914   7.225   0.298   9.972
   918G11  H00562915   7.193   0.356  10.058
   918G11  C01C62916   7.244   0.588   9.952
   918G11  H00262917   7.148   0.571   9.998
   918G11  C01B62918   7.306   0.718   9.945
   918G11  C01D62919   7.257   0.839   9.996
   918G11  H00362920   7.154   0.838  10.030
   918G11  C01E62921   7.333   0.951   9.990
   918G11  H00462922   7.298   1.044  10.031
   918G11  O00262923   7.462   0.951   9.939
   918G11  C01A62924   7.438   0.716   9.896
   918G11  C00V62925   7.573   0.392   9.750
   918G11  C01962926   7.514   0.835   9.886
   918G11  C02E62927   7.963   1.171   9.644
   918G11  C0FX62928   7.997   1.302   9.611
   918G11  C0FW62929   8.109   1.331   9.533
   918G11  C0GB62930   7.916   1.402   9.656
   918G11  C0G362931   8.038   1.069   9.595
   918G11  C07H62932   8.153   1.097   9.522
   918G11  C0GC62933   7.809   1.376   9.741
   918G11  C0G262934   7.944   1.529   9.603
   918G11  C0G162935   8.057   1.558   9.534
   918G11  C0FB62936   8.211   1.853   9.378
   918G11  C0F262937   8.406   1.648   9.328
   918G11  C0FY62938   8.143   1.460   9.495
   918G11  C0F562939   8.466   1.417   9.326
   918G11  C0FV62940   8.192   1.228   9.491
   918G11  C07962941   8.512   1.182   9.312
   918G11  C07A62942   8.534   0.947   9.266
   918G11  C06Y62943   8.447   0.692   9.280
   918G11  C07D62944   8.232   0.995   9.471
   918G11  C01F62945   7.998   0.938   9.615
   918G11  C00A62946   7.840   0.773   9.699
   918G11  C00X62947   7.771   0.514   9.717
   918G11  C00F62948   7.880   0.328   9.553
   918G11  C02962949   8.104   0.605   9.495
   918G11  C02562950   8.048   0.259   9.404
   918G11  C06U62951   8.275   0.539   9.342
   918G11  C02A62952   8.205   0.202   9.241
   918G11  C05Y62953   8.430   0.257   9.086
   918G11  C05Z62954   8.537   0.290   9.000
   918G11  C06062955   8.577   0.208   8.905
   918G11  C06262956   8.682   0.236   8.818
   918G11  C06T62957   8.390   0.567   9.270
   918G11  C06A62958   8.604   0.410   9.019
   918G11  C06Z62959   8.558   0.718   9.207
   918G11  C06Q62960   8.785   0.783   9.060
   918G11  C06862961   8.716   0.441   8.935
   918G11  C06762962   8.760   0.352   8.838
   918G11  C06362963   9.106   0.450   8.614
   918G11  C06C62964   9.207   0.499   8.529
   918G11  C06D62965   9.248   0.425   8.420
   918G11  C06E62966   9.339   0.461   8.322
   918G11  C07Q62967   9.400   0.583   8.340
   918G11  C07P62968   9.365   0.661   8.449
   918G11  C07T62969   9.421   0.789   8.459
   918G11  C07U62970   9.385   0.875   8.566
   918G11  C07V62971   9.436   1.001   8.570
   918G11  C08462972   9.527   1.040   8.474
   918G11  C08C62973   9.565   0.952   8.373
   918G11  C08B62974   9.652   0.997   8.276
   918G11  C08A62975   9.684   0.912   8.176
   918G11  C08962976   9.626   0.789   8.152
   918G11  C08862977   9.647   0.718   8.030
   918G11  C08762978   9.578   0.595   8.013
   918G11  C08662979   9.499   0.548   8.112
   918G11  C08X62980   9.729   0.764   7.928
   918G11  C08T62981   9.781   0.900   7.945
   918G11  C08D62982   9.547   0.741   8.255
   918G11  C08U62983   9.754   0.959   8.064
   918G11  C08V62984   9.792   1.091   8.061
   918G11  C0CY62985   9.769   1.179   8.169
   918G11  C0CX62986   9.808   1.308   8.155
   918G11  C0CW62987   9.777   1.395   8.253
   918G11  C0CV62988   9.704   1.344   8.365
   918G11  C0D462989   9.664   1.211   8.372
   918G11  C0CU62990   9.666   1.437   8.457
   918G11  C0CT62991   9.686   1.572   8.439
   918G11  C0CS62992   9.761   1.613   8.334
   918G11  C0D662993   9.587   1.386   8.556
   918G11  C0EC62994   9.543   1.257   8.568
   918G11  C07X62995   9.450   1.222   8.668
   918G11  C0DL62996   9.528   1.485   8.638
   918G11  C0DK62997   9.428   1.445   8.731
   918G11  C0DN62998   9.374   1.561   8.775
   918G11  C0D862999   9.533   1.623   8.622
   918G11  C08W63000   9.852   1.124   7.941
   918G11  C0CQ63001   9.905   1.259   7.928
   918G11  C09363002   9.703   1.126   8.273
   918G11  C09263003   9.584   1.169   8.473
   918G11  C08563004   9.513   0.826   8.364
   918G11  C07S63005   9.485   0.623   8.235
   918G11  C06F63006   9.367   0.380   8.211
   918G11  C07O63007   9.265   0.624   8.539
   918G11  C07N63008   9.224   0.711   8.641
   918G11  C05D63009   9.194   0.300   8.410
   918G11  C05C63010   9.224   0.220   8.301
   918G11  C05N63011   9.160   0.105   8.319
   918G11  C05M63012   8.863   0.045   8.549
   918G11  C05I63013   8.721   0.139   8.717
   918G11  C06163014   8.504   0.097   8.889
   918G11  C02Q63015   8.323  -0.044   8.947
   918G11  C02O63016   8.162  -0.266   8.858
   918G11  C03Q63017   8.484  -0.200   8.697
   918G11  C03O63018   8.560  -0.307   8.498
   918G11  C03L63019   8.386  -0.523   8.283
   918G11  C02S63020   8.221  -0.438   8.614
   918G11  C02T63021   8.023  -0.606   8.523
   918G11  C03K63022   8.270  -0.593   8.226
   918G11  C03I63023   7.924  -0.689   8.477
   918G11  C03G63024   7.712  -0.828   8.358
   918G11  H00D63025   7.638  -0.883   8.302
   918G11  C03J63026   8.038  -0.726   8.129
   918G11  C03W63027   7.992  -0.747   7.853
   918G11  C04I63028   8.219  -0.689   7.809
   918G11  C04K63029   8.427  -0.608   7.644
   918G11  C04N63030   8.528  -0.541   7.575
   918G11  C04X63031   8.744  -0.430   7.562
   918G11  C05063032   8.951  -0.290   7.543
   918G11  C05W63033   8.959  -0.306   7.828
   918G11  C05S63034   9.268   0.032   7.662
   918G11  C05R63035   9.168  -0.127   7.964
   918G11  C05O63036   9.166   0.012   8.215
   918G11  C05B63037   9.316   0.255   8.202
   918G11  C05A63038   9.351   0.151   7.863
   918G11  C07R63039   9.430   0.428   8.099
   918G11  C08N63040   9.590   0.527   7.891
   918G11  C08M63041   9.683   0.570   7.792
   918G11  C08L63042   9.695   0.495   7.670
   918G11  C09163043   9.330   0.161   7.725
   918G11  C09K63044   9.419   0.278   7.403
   918G11  H00M63045   9.315   0.284   7.377
   918G11  C08K63046   9.607   0.387   7.645
   918G11  C09J63047   9.528   0.321   7.323
   918G11  C09I63048   9.548   0.407   7.212
   918G11  C09L63049   9.478   0.416   7.090
   918G11  H00N63050   9.387   0.358   7.085
   918G11  C09Q63051   9.530   0.497   6.998
   918G11  H00O63052   9.485   0.510   6.900
   918G11  O00B63053   9.640   0.578   7.017
   918G11  C09G63054   9.710   0.576   7.140
   918G11  C09F63055   9.814   0.680   7.148
   918G11  O00A63056   9.824   0.758   7.035
   918G11  C09P63057   9.938   0.832   7.028
   918G11  H00P63058  10.007   0.808   6.948
   918G11  C09O63059   9.965   0.911   7.145
   918G11  C09D63060   9.959   0.836   7.265
   918G11  C09C63061  10.011   0.876   7.395
   918G11  C09N63062  10.034   1.003   7.450
   918G11  C09T63063  10.025   1.129   7.379
   918G11  C09S63064  10.015   1.142   7.234
   918G11  C0CP63065  10.023   1.279   7.219
   918G11  C0CN63066  10.037   1.357   7.337
   918G11  C0CO63067  10.039   1.495   7.323
   918G11  H01463068  10.052   1.563   7.406
   918G11  C0CZ63069  10.034   1.548   7.186
   918G11  H01563070  10.027   1.655   7.168
   918G11  C0D063071  10.032   1.465   7.068
   918G11  C0G563072  10.040   1.509   6.936
   918G11  H01F63073  10.047   1.614   6.909
   918G11  C0G463074  10.054   1.422   6.840
   918G11  H01G63075  10.071   1.454   6.738
   918G11  O00H63076  10.050   1.285   6.848
   918G11  C0D263077  10.022   1.243   6.972
   918G11  C09V63078  10.020   1.104   6.996
   918G11  H00Q63079  10.017   1.041   6.908
   918G11  C0D163080  10.022   1.326   7.084
   918G11  C09R63081  10.003   1.051   7.127
   918G11  C09H63082   9.671   0.480   7.233
   918G11  C09E63083   9.885   0.710   7.265
   918G11  C09B63084  10.011   0.791   7.503
   918G11  C08Z63085   9.795   0.542   7.575
   918G11  C08O63086   9.765   0.687   7.818
   918G11  C09A63087  10.051   0.861   7.624
   918G11  C08S63088   9.849   1.004   7.874
   918G11  C09963089  10.069   0.994   7.585
   918G11  C09U63090  10.043   1.258   7.445
   918G11  C0BO63091  10.194   1.580   7.744
   918G11  C0CL63092   9.978   1.295   7.815
   918G11  C0D363093   9.876   1.345   8.039
   918G11  C0D563094   9.814   1.526   8.243
   918G11  C0BR63095  10.057   1.644   7.932
   918G11  C0BQ63096  10.147   1.680   7.832
   918G11  C0BL63097  10.381   1.724   7.693
   918G11  C0AF63098  10.526   1.955   7.727
   918G11  C0BH63099  10.242   2.014   7.956
   918G11  C0BG63100  10.201   2.104   8.054
   918G11  C0BD63101  10.375   2.260   7.980
   918G11  C0AG63102  10.581   2.079   7.736
   918G11  C0AI63103  10.799   2.191   7.727
   918G11  C0AV63104  10.970   2.356   7.835
   918G11  C0BB63105  10.647   2.507   7.925
   918G11  O00C63106  10.989   2.525   8.015
   918G11  C0BC63107  10.631   2.590   8.034
   918G11  C0B963108  10.456   2.373   7.997
   918G11  O00E63109  10.282   2.519   8.296
   918G11  C0CA63110  10.166   2.501   8.372
   918G11  O00F63111  10.129   2.584   8.458
   918G11  C0BF63112  10.272   2.228   8.064
   918G11  C0C563113  10.096   2.379   8.351
   918G11  C0C463114   9.983   2.353   8.426
   918G11  H01163115   9.943   2.430   8.490
   918G11  C0C863116  10.101   2.071   8.144
   918G11  C0C263117   9.918   2.230   8.407
   918G11  C0C363118   9.796   2.192   8.475
   918G11  C0DY63119   9.706   2.276   8.536
   918G11  H01663120   9.697   2.383   8.553
   918G11  C0DX63121   9.599   2.190   8.577
   918G11  C0DW63122   9.467   2.243   8.597
   918G11  C0BY63123   9.947   1.910   8.228
   918G11  C0DB63124   9.741   2.066   8.477
   918G11  C0CC63125   9.790   1.748   8.319
   918G11  C0D763126   9.622   1.676   8.517
   918G11  C0DZ63127   9.624   2.053   8.547
   918G11  C0DM63128   9.443   1.679   8.726
   918G11  C0DQ63129   9.357   2.031   8.693
   918G11  C0DV63130   9.364   2.165   8.655
   918G11  C0E063131   9.421   2.385   8.585
   918G11  C0FO63132   9.226   2.524   8.848
   918G11  C0E363133   9.490   2.503   8.632
   918G11  H01763134   9.595   2.516   8.657
   918G11  C0GV63135   9.293   2.636   8.901
   918G11  C0ES63136   9.166   2.427   8.933
   918G11  C0GQ63137   9.192   2.622   9.248
   918G11  C0FJ63138   8.936   2.383   9.363
   918G11  C0ED63139   9.026   2.263   9.120
   918G11  C0ER63140   8.716   2.101   9.135
   918G11  C0EP63141   8.785   1.888   9.122
   918G11  C0E663142   9.097   2.067   8.963
   918G11  C0DE63143   9.187   1.778   8.913
   918G11  C0EA63144   8.875   1.644   9.106
   918G11  C0DF63145   9.213   1.641   8.941
   918G11  C08063146   9.039   1.349   9.036
   918G11  C0DO63147   9.277   1.540   8.865
   918G11  C0DJ63148   9.390   1.308   8.751
   918G11  C07K63149   9.116   1.115   8.924
   918G11  C07W63150   9.390   1.090   8.668
   918G11  C08363151   9.282   0.837   8.655
   918G11  C07J63152   9.073   0.982   8.926
   918G11  C06O63153   8.963   0.721   8.908
   918G11  C06M63154   9.121   0.669   8.733
   928G11  C07163155   3.576   9.917   7.429
   928G11  C07L63156   3.626   9.855   7.543
   928G11  C07M63157   3.601   9.723   7.574
   928G11  C07Y63158   3.663   9.659   7.685
   928G11  C08163159   3.751   9.722   7.772
   928G11  C08263160   3.804   9.652   7.882
   928G11  C0DI63161   3.886   9.695   7.994
   928G11  C0DH63162   3.954   9.817   8.021
   928G11  C0DG63163   4.023   9.807   8.141
   928G11  C0E963164   4.156   9.854   8.182
   928G11  C0E863165   4.180   9.757   8.301
   928G11  C0E763166   4.268   9.779   8.418
   928G11  C0EB63167   4.329   9.906   8.434
   928G11  C0EF63168   4.383   9.960   8.560
   928G11  C0EE63169   4.357   9.931   8.698
   928G11  C0FD63170   4.333  10.038   8.788
   928G11  C0FE63171   4.324  10.175   8.751
   928G11  H01B63172   4.347  10.213   8.652
   928G11  C0FF63173   4.276  10.269   8.837
   928G11  H01A63174   4.264  10.372   8.805
   928G11  C0FG63175   4.257  10.232   8.968
   928G11  H01863176   4.222  10.309   9.036
   928G11  C0FH63177   4.276  10.099   9.015
   928G11  C0FI63178   4.268  10.058   9.149
   928G11  H01963179   4.240  10.126   9.228
   928G11  O00K63180   4.292   9.928   9.196
   928G11  C0FL63181   4.323   9.839   9.104
   928G11  C0FK63182   4.337   9.870   8.964
   928G11  C0FM63183   4.358   9.768   8.874
   928G11  C0FN63184   4.380   9.636   8.924
   928G11  C0FP63185   4.374   9.613   9.063
   928G11  C0GO63186   4.388   9.487   9.128
   928G11  C0GN63187   4.368   9.456   9.261
   928G11  C0GR63188   4.353   9.567   9.348
   928G11  C0GS63189   4.353   9.545   9.485
   928G11  H01Q63190   4.353   9.618   9.564
   928G11  C0GT63191   4.350   9.409   9.527
   928G11  H01O63192   4.361   9.378   9.629
   928G11  C0GU63193   4.349   9.302   9.438
   928G11  H01P63194   4.338   9.205   9.484
   928G11  O00L63195   4.326   9.695   9.291
   928G11  C0GM63196   4.358   9.321   9.298
   928G11  C0GL63197   4.352   9.217   9.196
   928G11  H01R63198   4.340   9.111   9.213
   928G11  C0GK63199   4.390   9.251   9.065
   928G11  C0GP63200   4.411   9.181   8.937
   928G11  C0E263201   4.468   9.275   8.840
   928G11  C0E163202   4.416   9.240   8.716
   928G11  C0DU63203   4.341   9.328   8.629
   928G11  C0DT63204   4.345   9.463   8.610
   928G11  C0E463205   4.379   9.555   8.703
   928G11  C0E563206   4.345   9.680   8.654
   928G11  C0DS63207   4.269   9.527   8.510
   928G11  C0DR63208   4.186   9.446   8.431
   928G11  C0DD63209   4.096   9.501   8.335
   928G11  C0DC63210   4.031   9.372   8.289
   928G11  C0DP63211   4.068   9.255   8.368
   928G11  C0DA63212   4.011   9.115   8.354
   928G11  C0D963213   3.914   9.050   8.262
   928G11  C0CR63214   3.873   8.913   8.278
   928G11  C0C063215   3.920   8.838   8.382
   928G11  C0BZ63216   3.890   8.704   8.408
   928G11  C0C163217   3.948   8.633   8.512
   928G11  C0C763218   3.904   8.503   8.544
   928G11  C0C663219   3.950   8.441   8.656
   928G11  C0C963220   3.883   8.330   8.697
   928G11  C0B863221   3.920   8.281   8.827
   928G11  C0B763222   3.859   8.163   8.877
   928G11  C0B663223   3.862   8.114   9.012
   928G11  C0B563224   3.839   8.214   9.118
   928G11  H00Z63225   3.858   8.320   9.107
   928G11  C0B463226   3.740   8.151   9.207
   928G11  H01063227   3.679   8.198   9.283
   928G11  C0B363228   3.725   8.013   9.171
   928G11  C0AP63229   3.606   7.934   9.151
   928G11  C0AQ63230   3.624   7.874   9.024
   928G11  C0AR63231   3.514   7.823   8.952
   928G11  C0AS63232   3.527   7.826   8.820
   928G11  C0AT63233   3.607   7.922   8.758
   928G11  C0BA63234   3.707   7.980   8.834
   928G11  C0AU63235   3.587   7.969   8.626
   928G11  C0BE63236   3.647   8.086   8.580
   928G11  C0BI63237   3.614   8.137   8.455
   928G11  C0BJ63238   3.515   8.077   8.374
   928G11  C0BK63239   3.474   8.136   8.258
   928G11  C0BW63240   3.533   8.251   8.215
   928G11  C0BV63241   3.625   8.317   8.295
   928G11  C0BU63242   3.671   8.443   8.264
   928G11  C0BX63243   3.759   8.511   8.346
   928G11  C0BT63244   3.620   8.511   8.152
   928G11  C0CD63245   3.651   8.641   8.131
   928G11  C0CB63246   3.743   8.707   8.214
   928G11  C0CE63247   3.597   8.715   8.030
   928G11  C0CK63248   3.518   8.646   7.937
   928G11  C0BS63249   3.480   8.510   7.959
   928G11  C0CJ63250   3.393   8.442   7.875
   928G11  C0BP63251   3.345   8.313   7.904
   928G11  C0CI63252   3.255   8.243   7.823
   928G11  C0CH63253   3.188   8.141   7.887
   928G11  H01263254   3.109   8.091   7.833
   928G11  C0BN63255   3.224   8.081   8.006
   928G11  C0CG63256   3.152   7.976   8.058
   928G11  C0CF63257   3.038   7.913   7.985
   928G11  H01363258   3.006   7.941   7.885
   928G11  O00G63259   2.975   7.802   8.033
   928G11  C0AA63260   3.014   7.757   8.161
   928G11  C0A963261   2.955   7.643   8.206
   928G11  H00U63262   2.878   7.595   8.148
   928G11  C0A863263   2.980   7.602   8.335
   928G11  H00V63264   2.918   7.518   8.363
   928G11  C0A763265   3.055   7.679   8.426
   928G11  C0A663266   3.139   7.783   8.369
   928G11  C0A563267   3.255   7.823   8.434
   928G11  C0A463268   3.287   7.782   8.567
   928G11  C0A363269   3.220   7.712   8.677
   928G11  C0A263270   3.081   7.708   8.677
   928G11  C0A163271   3.012   7.669   8.796
   928G11  C0A063272   3.025   7.701   8.940
   928G11  C09Z63273   2.910   7.666   9.017
   928G11  C09Y63274   2.910   7.702   9.155
   928G11  H00Y63275   2.826   7.682   9.220
   928G11  C09X63276   3.013   7.794   9.196
   928G11  C09W63277   2.992   7.857   9.324
   928G11  H00R63278   2.897   7.846   9.374
   928G11  C0AX63279   3.088   7.942   9.381
   928G11  H00S63280   3.075   7.990   9.476
   928G11  C0AW63281   3.217   7.944   9.325
   928G11  H00T63282   3.293   7.991   9.385
   928G11  C0AN63283   3.242   7.883   9.197
   928G11  C0AO63284   3.373   7.873   9.142
   928G11  C0AM63285   3.135   7.815   9.130
   928G11  C0B263286   2.790   7.599   8.971
   928G11  O00D63287   2.694   7.566   9.046
   928G11  C0B163288   2.781   7.584   8.827
   928G11  H00W63289   2.694   7.530   8.792
   928G11  C0AL63290   3.147   7.763   8.996
   928G11  C0AK63291   3.275   7.769   8.938
   928G11  C0B063292   2.889   7.613   8.748
   928G11  C0AZ63293   2.896   7.593   8.607
   928G11  H00X63294   2.819   7.541   8.552
   928G11  C0AJ63295   3.295   7.742   8.791
   928G11  C0AH63296   3.414   7.809   8.608
   928G11  C0AE63297   3.339   7.917   8.370
   928G11  C0AD63298   3.300   7.967   8.244
   928G11  C0AY63299   3.012   7.667   8.564
   928G11  C0AB63300   3.119   7.817   8.238
   928G11  C0AC63301   3.190   7.918   8.174
   928G11  C0BM63302   3.327   8.140   8.073
   928G11  C0CM63303   3.247   8.289   7.690
   928G11  C09M63304   3.245   8.430   7.674
   928G11  C09863305   3.145   8.487   7.588
   928G11  C08R63306   3.114   8.613   7.527
   928G11  C08Q63307   3.000   8.624   7.442
   928G11  C08P63308   2.961   8.707   7.326
   928G11  C08Y63309   2.878   8.640   7.227
   928G11  C09763310   2.887   8.500   7.218
   928G11  C09663311   2.917   8.460   7.089
   928G11  C09063312   2.877   8.574   7.014
   928G11  C09563313   2.881   8.577   6.873
   928G11  C09463314   2.828   8.688   6.795
   928G11  C08J63315   2.815   8.826   6.831
   928G11  C08I63316   2.851   8.907   6.722
   928G11  C08H63317   2.884   9.037   6.775
   928G11  C08G63318   2.911   9.019   6.913
   928G11  C08F63319   2.956   9.104   7.023
   928G11  C08E63320   2.963   9.241   7.011
   928G11  C05963321   2.898   9.323   6.908
   928G11  C05863322   2.917   9.465   6.897
   928G11  C05763323   2.877   9.551   6.793
   928G11  C05663324   2.800   9.487   6.689
   928G11  C05563325   2.755   9.359   6.705
   928G11  C05463326   2.729   9.311   6.579
   928G11  C05363327   2.764   9.417   6.478
   928G11  C05263328   2.784   9.405   6.339
   928G11  C05163329   2.764   9.278   6.271
   928G11  C05U63330   2.745   9.142   6.333
   928G11  C05T63331   2.743   9.095   6.469
   928G11  C06K63332   2.699   8.960   6.462
   928G11  H00J63333   2.685   8.898   6.550
   928G11  C06L63334   2.679   8.918   6.328
   928G11  H00I63335   2.655   8.824   6.282
   928G11  C05V63336   2.718   9.033   6.251
   928G11  C06J63337   2.726   9.038   6.115
   928G11  H00K63338   2.709   8.950   6.056
   928G11  C05X63339   2.753   9.161   6.055
   928G11  C06I63340   2.769   9.166   5.916
   928G11  H00L63341   2.761   9.078   5.854
   928G11  C04Z63342   2.809   9.276   5.840
   928G11  C06H63343   2.836   9.274   5.700
   928G11  H00H63344   2.817   9.183   5.645
   928G11  C04Y63345   2.887   9.386   5.631
   928G11  C06G63346   2.918   9.369   5.489
   928G11  O00963347   2.915   9.262   5.427
   928G11  O00863348   2.972   9.472   5.426
   928G11  C04P63349   3.001   9.591   5.490
   928G11  C04J63350   3.083   9.696   5.437
   928G11  C04Q63351   3.131   9.714   5.306
   928G11  H00E63352   3.100   9.658   5.219
   928G11  C04M63353   3.240   9.806   5.272
   928G11  C04R63354   3.307   9.813   5.145
   928G11  H00F63355   3.274   9.750   5.063
   928G11  C04S63356   3.408   9.904   5.129
   928G11  H00G63357   3.463   9.902   5.036
   928G11  O00763358   3.451   9.984   5.227
   928G11  C03V63359   3.380   9.986   5.343
   928G11  C03U63360   3.409  10.088   5.435
   928G11  O00663361   3.497  10.177   5.398
   928G11  C03F63362   3.534  10.279   5.481
   928G11  C03E63363   3.487  10.282   5.607
   928G11  C03D63364   3.404  10.183   5.655
   928G11  C03C63365   3.358  10.188   5.785
   928G11  C03B63366   3.405  10.297   5.863
   928G11  C03A63367   3.364  10.303   5.998
   928G11  C03963368   3.285  10.204   6.052
   928G11  C03863369   3.288  10.237   6.198
   928G11  C03763370   3.359  10.358   6.199
   928G11  C03663371   3.372  10.425   6.316
   928G11  C02R63372   3.451  10.534   6.350
   928G11  C03563373   3.448  10.536   6.490
   928G11  C03R63374   3.363  10.442   6.543
   928G11  C03S63375   3.393  10.386   6.666
   928G11  C04963376   3.343  10.263   6.694
   928G11  C04863377   3.279  10.196   6.584
   928G11  C03P63378   3.281  10.234   6.446
   928G11  C04763379   3.208  10.082   6.629
   928G11  C04663380   3.114  10.009   6.552
   928G11  C04563381   3.085  10.013   6.417
   928G11  C03T63382   3.150  10.071   6.310
   928G11  C04463383   3.095  10.020   6.189
   928G11  C04363384   2.982   9.943   6.224
   928G11  C04263385   2.968   9.848   6.125
   928G11  C04163386   3.054   9.897   6.009
   928G11  C04063387   3.045   9.849   5.874
   928G11  C03Z63388   3.116   9.899   5.759
   928G11  C04H63389   3.078   9.814   5.655
   928G11  C04G63390   3.001   9.713   5.705
   928G11  C03N63391   3.220   9.996   5.731
   928G11  C03Y63392   3.268   9.993   5.600
   928G11  C03X63393   3.225   9.894   5.505
   928G11  C04F63394   2.978   9.729   5.843
   928G11  C04E63395   2.919   9.628   5.913
   928G11  C04O63396   2.889   9.507   5.837
   928G11  C04D63397   2.894   9.618   6.058
   928G11  C04V63398   2.844   9.504   6.121
   928G11  C04W63399   2.817   9.385   6.050
   928G11  C04C63400   2.906   9.719   6.157
   928G11  C04L63401   2.864   9.655   6.285
   928G11  C04U63402   2.845   9.722   6.410
   928G11  C05Q63403   2.830   9.656   6.534
   928G11  C05P63404   2.885   9.729   6.641
   928G11  C04T63405   2.950   9.836   6.582
   928G11  C04B63406   2.920   9.840   6.447
   928G11  C03M63407   3.138  10.012   6.048
   928G11  C04A63408   2.991   9.930   6.363
   928G11  C05H63409   3.050   9.921   6.636
   928G11  C05G63410   3.097   9.940   6.776
   928G11  C05F63411   3.065   9.864   6.889
   928G11  C05E63412   3.166   9.844   6.997
   928G11  C05L63413   3.283   9.912   7.047
   928G11  C05K63414   3.335  10.033   6.989
   928G11  C05J63415   3.298  10.091   6.863
   928G11  C06663416   3.435  10.099   7.069
   928G11  C06563417   3.476  10.042   7.195
   928G11  C06463418   3.424   9.916   7.241
   928G11  C06N63419   3.575  10.108   7.273
   928G11  C06963420   3.630  10.227   7.228
   928G11  C06P63421   3.730  10.289   7.303
   928G11  C06R63422   3.786  10.415   7.263
   928G11  C06B63423   3.741  10.471   7.146
   928G11  C06S63424   3.815  10.582   7.098
   928G11  C02G63425   3.781  10.631   6.972
   928G11  C02F63426   3.848  10.745   6.919
   928G11  C02763427   3.961  10.798   6.988
   928G11  C02663428   4.033  10.897   6.932
   928G11  C00E63429   4.139  10.953   6.998
   928G11  C00D63430   4.221  11.049   6.942
   928G11  C00C63431   4.343  11.073   6.996
   928G11  C00B63432   4.390  11.013   7.111
   928G11  C01563433   4.306  10.916   7.170
   928G11  C07F63434   4.356  10.850   7.282
   928G11  C07E63435   4.274  10.760   7.347
   928G11  C06W63436   4.145  10.734   7.297
   928G11  C06V63437   4.105  10.789   7.179
   928G11  C06X63438   4.068  10.632   7.354
   928G11  C07B63439   4.114  10.560   7.466
   928G11  C07C63440   4.241  10.597   7.522
   928G11  C0FU63441   4.285  10.526   7.636
   928G11  C0F763442   4.410  10.551   7.683
   928G11  C0F663443   4.458  10.483   7.794
   928G11  C0F863444   4.579  10.514   7.853
   928G11  C0F963445   4.621  10.451   7.969
   928G11  C0FA63446   4.747  10.476   8.020
   928G11  C0FZ63447   4.832  10.555   7.947
   928G11  C0G063448   4.964  10.580   7.993
   928G11  C0GD63449   5.010  10.526   8.114
   928G11  C0FC63450   4.923  10.450   8.187
   928G11  C0GH63451   4.967  10.391   8.302
   928G11  C0EY63452   4.872  10.322   8.380
   928G11  C0EX63453   4.906  10.268   8.507
   928G11  C0EW63454   4.810  10.209   8.585
   928G11  C0FR63455   4.835  10.178   8.719
   928G11  H01D63456   4.756  10.148   8.787
   928G11  C0FS63457   4.963  10.180   8.772
   928G11  H01C63458   4.981  10.149   8.874
   928G11  C0GJ63459   5.057  10.242   8.692
   928G11  H01N63460   5.156  10.265   8.729
   928G11  C0EV63461   4.689  10.176   8.532
   928G11  C0FT63462   4.591  10.099   8.604
   928G11  H01E63463   4.609  10.061   8.704
   928G11  C0EU63464   4.659  10.209   8.400
   928G11  C0ET63465   4.549  10.162   8.336
   928G11  C0EI63466   4.506  10.199   8.210
   928G11  C0F163467   4.583  10.292   8.146
   928G11  C0F063468   4.709  10.330   8.202
   928G11  C0EH63469   4.391  10.142   8.148
   928G11  C0EG63470   4.320  10.031   8.205
   928G11  C0EJ63471   4.348  10.207   8.033
   928G11  C0F363472   4.422  10.314   7.971
   928G11  C0EK63473   4.231  10.166   7.974
   928G11  C0EL63474   4.159  10.053   8.022
   928G11  C0EM63475   4.047  10.023   7.938
   928G11  C0EN63476   4.006  10.110   7.848
   928G11  C07I63477   3.901  10.056   7.771
   928G11  C07463478   3.848  10.117   7.658
   928G11  C07363479   3.759  10.048   7.580
   928G11  C07263480   3.716  10.111   7.466
   928G11  C07563481   3.911  10.231   7.614
   928G11  C07663482   4.018  10.284   7.685
   928G11  C07863483   4.088  10.388   7.632
   928G11  C07G63484   3.869  10.290   7.498
   928G11  C07063485   3.931  10.408   7.453
   928G11  C07Z63486   3.875   9.927   7.811
   928G11  C07763487   4.067  10.225   7.805
   928G11  C0EO63488   4.184  10.250   7.866
   928G11  C0F463489   4.254  10.359   7.813
   928G11  C0EQ63490   4.464  10.078   8.396
   928G11  C0FQ63491   5.034  10.285   8.557
   928G11  C0GI63492   5.128  10.355   8.478
   928G11  H01L63493   5.226  10.365   8.524
   928G11  C0EZ63494   4.748  10.289   8.328
   928G11  C0GG63495   5.099  10.407   8.349
   928G11  C0GF63496   5.185  10.479   8.272
   928G11  H01M63497   5.285  10.492   8.311
   928G11  C0GE63498   5.139  10.542   8.159
   928G11  H01K63499   5.215  10.599   8.107
   928G11  O00J63500   5.046  10.661   7.917
   928G11  C0GA63501   4.998  10.732   7.810
   928G11  C0G963502   5.079  10.825   7.744
   928G11  H01H63503   5.174  10.844   7.793
   928G11  C0G863504   5.050  10.885   7.623
   928G11  C0G763505   5.142  10.963   7.543
   928G11  H01I63506   5.246  10.964   7.569
   928G11  O00I63507   5.120  10.996   7.413
   928G11  C0G663508   4.987  10.970   7.372
   928G11  H01J63509   4.966  10.980   7.267
   928G11  C02D63510   4.882  10.910   7.454
   928G11  C02C63511   4.748  10.905   7.419
   928G11  C01763512   4.696  10.983   7.308
   928G11  C01663513   4.571  10.959   7.260
   928G11  O00163514   4.773  11.079   7.253
   928G11  C01863515   4.752  11.123   7.129
   928G11  C00963516   4.614  11.116   7.077
   928G11  C00863517   4.559  11.177   6.959
   928G11  C00763518   4.623  11.248   6.846
   928G11  C00663519   4.764  11.248   6.826
   928G11  C00563520   4.828  11.298   6.709
   928G11  C00463521   4.766  11.342   6.587
   928G11  C00363522   4.635  11.318   6.530
   928G11  C00263523   4.612  11.337   6.390
   928G11  C00P63524   4.491  11.303   6.323
   928G11  C00O63525   4.484  11.301   6.181
   928G11  C00N63526   4.377  11.249   6.115
   928G11  C01063527   4.378  11.242   5.976
   928G11  C01163528   4.274  11.179   5.908
   928G11  C01Q63529   4.281  11.161   5.768
   928G11  C01U63530   4.390  11.213   5.688
   928G11  C01263531   4.486  11.281   5.768
   928G11  H00063532   4.576  11.309   5.714
   928G11  C01V63533   4.385  11.197   5.549
   928G11  H00763534   4.470  11.233   5.491
   928G11  O00563535   4.291  11.118   5.483
   928G11  C01W63536   4.197  11.064   5.563
   928G11  C03163537   4.099  10.992   5.493
   928G11  C03263538   3.984  10.947   5.562
   928G11  H00A63539   3.899  10.892   5.523
   928G11  C03363540   3.968  10.982   5.697
   928G11  H00B63541   3.882  10.937   5.745
   928G11  C01O63542   4.078  11.045   5.770
   928G11  C01N63543   4.074  11.045   5.909
   928G11  C01M63544   3.968  10.981   5.991
   928G11  C01L63545   3.870  10.865   5.987
   928G11  C01K63546   3.817  10.863   6.114
   928G11  C01Y63547   3.731  10.769   6.165
   928G11  C02I63548   3.672  10.675   6.081
   928G11  C02N63549   3.566  10.592   6.131
   928G11  C02M63550   3.508  10.502   6.040
   928G11  C02L63551   3.544  10.496   5.908
   928G11  C02K63552   3.648  10.579   5.860
   928G11  C02U63553   3.693  10.564   5.731
   928G11  C02V63554   3.627  10.478   5.642
   928G11  C03H63555   3.664  10.483   5.504
   928G11  H00C63556   3.732  10.556   5.461
   928G11  C02W63557   3.819  10.608   5.702
   928G11  C02X63558   3.880  10.691   5.789
   928G11  C02Y63559   4.012  10.701   5.742
   928G11  H00863560   4.099  10.758   5.769
   928G11  C02Z63561   4.010  10.639   5.609
   928G11  O00463562   4.097  10.641   5.519
   928G11  O00363563   3.896  10.580   5.594
   928G11  C02J63564   3.717  10.670   5.949
   928G11  C01Z63565   3.715  10.776   6.303
   928G11  C02063566   3.793  10.856   6.385
   928G11  C01I63567   3.862  10.956   6.329
   928G11  C01H63568   3.959  11.027   6.401
   928G11  C00K63569   4.059  11.098   6.329
   928G11  C01S63570   4.062  11.098   6.192
   928G11  C01463571   4.164  11.142   6.117
   928G11  C00J63572   4.162  11.155   6.400
   928G11  C00I63573   4.170  11.139   6.538
   928G11  C00H63574   4.067  11.068   6.609
   928G11  C00G63575   4.089  11.038   6.746
   928G11  C00S63576   4.284  11.183   6.604
   928G11  C00T63577   4.286  11.164   6.739
   928G11  C00U63578   4.403  11.209   6.805
   928G11  C00R63579   4.394  11.241   6.536
   928G11  C00L63580   4.268  11.206   6.331
   928G11  C02863581   3.969  11.009   6.538
   928G11  C02363582   3.888  10.916   6.597
   928G11  C02463583   3.901  10.886   6.733
   928G11  C02163584   3.801  10.843   6.521
   928G11  C02263585   3.716  10.751   6.579
   928G11  C02H63586   3.725  10.723   6.716
   928G11  C03063587   3.653  10.615   6.772
   928G11  C03463588   3.557  10.557   6.694
   928G11  C02P63589   3.623  10.689   6.502
   928G11  C02B63590   3.625  10.695   6.358
   928G11  C01J63591   3.864  10.965   6.194
   928G11  C01X63592   3.829  10.751   5.907
   928G11  C01T63593   3.958  11.035   6.120
   928G11  H00963594   4.110  10.969   5.388
   928G11  C01P63595   4.186  11.088   5.701
   928G11  C01R63596   4.169  11.121   5.978
   928G11  C00Z63597   4.487  11.292   5.906
   928G11  O00063598   4.597  11.340   5.970
   928G11  C00M63599   4.268  11.204   6.185
   928G11  C00Y63600   4.590  11.354   6.107
   928G11  C01363601   4.695  11.409   6.175
   928G11  H00163602   4.782  11.445   6.122
   928G11  C00Q63603   4.380  11.255   6.396
   928G11  C00163604   4.713  11.396   6.312
   928G11  C00063605   4.830  11.428   6.373
   928G11  H00663606   4.901  11.489   6.321
   928G11  C00W63607   4.519  11.276   6.601
   928G11  C01G63608   4.859  11.418   6.510
   928G11  H00563609   4.956  11.456   6.538
   928G11  C01C63610   4.967  11.314   6.740
   928G11  H00263611   5.050  11.356   6.686
   928G11  C01B63612   4.983  11.264   6.869
   928G11  C01D63613   5.110  11.270   6.943
   928G11  H00363614   5.199  11.306   6.894
   928G11  C01E63615   5.107  11.217   7.066
   928G11  H00463616   5.197  11.212   7.125
   928G11  O00263617   4.990  11.176   7.129
   928G11  C01A63618   4.862  11.225   6.926
   928G11  C00V63619   4.523  11.253   6.745
   928G11  C01963620   4.868  11.177   7.057
   928G11  C02E63621   4.661  10.825   7.489
   928G11  C0FX63622   4.707  10.759   7.599
   928G11  C0FW63623   4.623  10.666   7.668
   928G11  C0GB63624   4.835  10.779   7.650
   928G11  C0G363625   4.533  10.802   7.441
   928G11  C07H63626   4.445  10.720   7.510
   928G11  C0GC63627   4.924  10.863   7.580
   928G11  C0G263628   4.867  10.714   7.767
   928G11  C0G163629   4.786  10.626   7.835
   928G11  C0FB63630   4.792  10.417   8.135
   928G11  C0F263631   4.544  10.351   8.023
   928G11  C0FY63632   4.660  10.606   7.787
   928G11  C0F563633   4.376  10.386   7.861
   928G11  C0FV63634   4.491  10.651   7.625
   928G11  C07963635   4.208  10.428   7.696
   928G11  C07A63636   4.042  10.453   7.522
   928G11  C06Y63637   3.953  10.587   7.290
   928G11  C07D63638   4.318  10.694   7.461
   928G11  C01F63639   4.484  10.875   7.329
   928G11  C00A63640   4.524  11.036   7.152
   928G11  C00X63641   4.428  11.169   6.935
   928G11  C00F63642   4.196  11.091   6.813
   928G11  C02963643   4.181  10.888   7.116
   928G11  C02563644   4.008  10.940   6.801
   928G11  C06U63645   3.989  10.745   7.115
   928G11  C02A63646   3.822  10.789   6.790
   928G11  C05Y63647   3.679  10.572   6.901
   928G11  C05Z63648   3.607  10.459   6.951
   928G11  C06063649   3.515  10.394   6.868
   928G11  C06263650   3.453  10.273   6.905
   928G11  C06T63651   3.923  10.637   7.166
   928G11  C06A63652   3.645  10.404   7.069
   928G11  C06Z63653   3.892  10.475   7.338
   928G11  C06Q63654   3.768  10.230   7.424
   928G11  C06863655   3.586  10.285   7.110
   928G11  C06763656   3.491  10.218   7.027
   928G11  C06363657   3.335   9.848   7.163
   928G11  C06C63658   3.297   9.713   7.201
   928G11  C06D63659   3.191   9.647   7.146
   928G11  C06E63660   3.160   9.511   7.166
   928G11  C07Q63661   3.226   9.450   7.264
   928G11  C07P63662   3.331   9.515   7.338
   928G11  C07T63663   3.386   9.454   7.444
   928G11  C07U63664   3.480   9.519   7.520
   928G11  C07V63665   3.543   9.454   7.628
   928G11  C08463666   3.514   9.323   7.648
   928G11  C08C63667   3.419   9.260   7.576
   928G11  C08B63668   3.397   9.124   7.590
   928G11  C08A63669   3.304   9.063   7.508
   928G11  C08963670   3.224   9.119   7.419
   928G11  C08863671   3.130   9.044   7.344
   928G11  C08763672   3.072   9.111   7.234
   928G11  C08663673   3.100   9.245   7.211
   928G11  C08X63674   3.105   8.910   7.367
   928G11  C08T63675   3.186   8.848   7.474
   928G11  C08D63676   3.254   9.253   7.397
   928G11  C08U63677   3.274   8.930   7.534
   928G11  C08V63678   3.331   8.866   7.641
   928G11  C0CY63679   3.432   8.926   7.712
   928G11  C0CX63680   3.484   8.852   7.816
   928G11  C0CW63681   3.571   8.914   7.898
   928G11  C0CV63682   3.608   9.047   7.875
   928G11  C0D463683   3.551   9.115   7.772
   928G11  C0CU63684   3.695   9.113   7.962
   928G11  C0CT63685   3.758   9.046   8.067
   928G11  C0CS63686   3.724   8.911   8.083
   928G11  C0D663687   3.712   9.244   7.935
   928G11  C0EC63688   3.668   9.315   7.823
   928G11  C07X63689   3.692   9.447   7.806
   928G11  C0DL63690   3.804   9.306   8.016
   928G11  C0DK63691   3.832   9.442   7.994
   928G11  C0DN63692   3.911   9.477   8.095
   928G11  C0D863693   3.873   9.257   8.127
   928G11  C08W63694   3.295   8.735   7.650
   928G11  C0CQ63695   3.362   8.648   7.748
   928G11  C09363696   3.461   9.054   7.688
   928G11  C09263697   3.579   9.252   7.743
   928G11  C08563698   3.350   9.322   7.473
   928G11  C07S63699   3.195   9.317   7.292
   928G11  C06F63700   3.062   9.447   7.093
   928G11  C07O63701   3.363   9.646   7.302
   928G11  C07N63702   3.449   9.718   7.384
   928G11  C05D63703   3.125   9.716   7.051
   928G11  C05C63704   3.028   9.654   6.980
   928G11  C05N63705   2.987   9.740   6.877
   928G11  C05M63706   3.203  10.037   6.769
   928G11  C05I63707   3.364  10.205   6.818
   928G11  C06163708   3.487  10.448   6.739
   928G11  C02Q63709   3.545  10.597   6.568
   928G11  C02O63710   3.548  10.607   6.276
   928G11  C03Q63711   3.339  10.362   6.435
   928G11  C03O63712   3.237  10.173   6.323
   928G11  C03L63713   3.229  10.099   5.974
   928G11  C02S63714   3.413  10.402   6.084
   928G11  C02T63715   3.495  10.393   5.822
   928G11  C03K63716   3.261  10.091   5.831
   928G11  C03I63717   3.537  10.384   5.690
   928G11  C03G63718   3.624  10.375   5.422
   928G11  H00D63719   3.660  10.369   5.320
   928G11  C03J63720   3.360  10.083   5.566
   928G11  C03W63721   3.283   9.889   5.377
   928G11  C04I63722   3.122   9.805   5.524
   928G11  C04K63723   2.975   9.600   5.628
   928G11  C04N63724   2.911   9.500   5.700
   928G11  C04X63725   2.836   9.391   5.907
   928G11  C05063726   2.773   9.279   6.127
   928G11  C05W63727   2.829   9.518   6.264
   928G11  C05S63728   2.763   9.174   6.581
   928G11  C05R63729   2.781   9.531   6.558
   928G11  C05O63730   2.910   9.685   6.774
   928G11  C05B63731   2.997   9.521   6.995
   928G11  C05A63732   2.825   9.274   6.793
   928G11  C07R63733   3.043   9.309   7.104
   928G11  C08N63734   2.994   9.042   7.143
   928G11  C08M63735   2.967   8.903   7.169
   928G11  C08L63736   2.907   8.825   7.071
   928G11  C09163737   2.821   9.152   6.717
   928G11  C09K63738   2.921   8.826   6.624
   928G11  H00M63739   3.000   8.862   6.559
   928G11  C08K63740   2.879   8.885   6.944
   928G11  C09J63741   2.894   8.692   6.664
   928G11  C09I63742   2.963   8.570   6.657
   928G11  C09L63743   3.022   8.504   6.548
   928G11  H00N63744   3.036   8.566   6.460
   928G11  C09Q63745   3.077   8.383   6.565
   928G11  H00O63746   3.108   8.329   6.476
   928G11  O00B63747   3.087   8.312   6.689
   928G11  C09G63748   3.024   8.373   6.800
   928G11  C09F63749   3.036   8.302   6.924
   928G11  O00A63750   3.092   8.181   6.907
   928G11  C09P63751   3.104   8.098   7.011
   928G11  H00P63752   3.132   7.995   6.993
   928G11  C09O63753   3.106   8.138   7.147
   928G11  C09D63754   3.037   8.262   7.171
   928G11  C09C63755   3.013   8.322   7.305
   928G11  C09N63756   3.080   8.296   7.429
   928G11  C09T63757   3.179   8.202   7.457
   928G11  C09S63758   3.176   8.082   7.388
   928G11  C0CP63759   3.220   7.986   7.477
   928G11  C0CN63760   3.252   8.036   7.604
   928G11  C0CO63761   3.313   7.953   7.697
   928G11  H01463762   3.358   7.983   7.791
   928G11  C0CZ63763   3.313   7.816   7.662
   928G11  H01563764   3.351   7.751   7.740
   928G11  C0D063765   3.263   7.764   7.540
   928G11  C0G563766   3.262   7.625   7.498
   928G11  H01F63767   3.311   7.566   7.575
   928G11  C0G463768   3.220   7.590   7.378
   928G11  H01G63769   3.231   7.489   7.343
   928G11  O00H63770   3.186   7.676   7.280
   928G11  C0D263771   3.195   7.806   7.310
   928G11  C09V63772   3.153   7.906   7.219
   928G11  H00Q63773   3.125   7.860   7.125
   928G11  C0D163774   3.230   7.854   7.436
   928G11  C09R63775   3.144   8.048   7.255
   928G11  C09H63776   2.953   8.496   6.781
   928G11  C09E63777   2.990   8.342   7.054
   928G11  C09B63778   2.934   8.433   7.327
   928G11  C08Z63779   2.890   8.687   7.095
   928G11  C08O63780   3.011   8.841   7.287
   928G11  C09A63781   2.953   8.492   7.450
   928G11  C08S63782   3.202   8.720   7.539
   928G11  C09963783   3.048   8.409   7.515
   928G11  C09U63784   3.223   8.182   7.593
   928G11  C0BO63785   3.384   8.258   8.028
   928G11  C0CL63786   3.332   8.506   7.764
   928G11  C0D363787   3.454   8.712   7.833
   928G11  C0D563788   3.621   8.850   8.009
   928G11  C0BR63789   3.529   8.446   8.070
   928G11  C0BQ63790   3.486   8.314   8.101
   928G11  C0BL63791   3.368   8.077   8.189
   928G11  C0AF63792   3.448   7.969   8.428
   928G11  C0BH63793   3.669   8.257   8.415
   928G11  C0BG63794   3.758   8.326   8.500
   928G11  C0BD63795   3.736   8.151   8.668
   928G11  C0AG63796   3.487   7.912   8.550
   928G11  C0AI63797   3.416   7.786   8.743
   928G11  C0AV63798   3.388   7.819   9.010
   928G11  C0BB63799   3.737   7.929   8.965
   928G11  O00C63800   3.483   7.929   9.212
   928G11  C0BC63801   3.817   7.992   9.062
   928G11  C0B963802   3.770   8.093   8.788
   928G11  O00E63803   4.034   8.333   8.894
   928G11  C0CA63804   4.103   8.436   8.848
   928G11  O00F63805   4.198   8.480   8.915
   928G11  C0BF63806   3.790   8.268   8.621
   928G11  C0C563807   4.049   8.499   8.732
   928G11  C0C463808   4.101   8.623   8.705
   928G11  H01163809   4.177   8.664   8.769
   928G11  C0C863810   3.811   8.443   8.462
   928G11  C0C263811   4.047   8.687   8.591
   928G11  C0C363812   4.076   8.820   8.564
   928G11  C0DY63813   4.161   8.902   8.631
   928G11  H01663814   4.216   8.890   8.723
   928G11  C0DX63815   4.159   9.030   8.559
   928G11  C0DW63816   4.248   9.128   8.611
   928G11  C0BY63817   3.800   8.641   8.321
   928G11  C0DB63818   4.014   8.895   8.464
   928G11  C0CC63819   3.789   8.844   8.188
   928G11  C0D763820   3.851   9.115   8.152
   928G11  C0DZ63821   4.065   9.025   8.448
   928G11  C0DM63822   3.952   9.362   8.175
   928G11  C0DQ63823   4.169   9.310   8.457
   928G11  C0DV63824   4.245   9.256   8.561
   928G11  C0E063825   4.340   9.122   8.726
   928G11  C0FO63826   4.446   9.404   8.902
   928G11  C0E363827   4.309   9.103   8.866
   928G11  H01763828   4.235   9.036   8.907
   928G11  C0GV63829   4.415   9.385   9.036
   928G11  C0ES63830   4.409   9.530   8.841
   928G11  C0GQ63831   4.338   9.712   9.156
   928G11  C0FJ63832   4.319  10.000   8.924
   928G11  C0ED63833   4.357   9.797   8.736
   928G11  C0ER63834   4.485  10.053   8.531
   928G11  C0EP63835   4.371  10.001   8.334
   928G11  C0E663836   4.296   9.670   8.517
   928G11  C0DE63837   4.090   9.639   8.287
   928G11  C0EA63838   4.208   9.982   8.129
   928G11  C0DF63839   3.991   9.687   8.201
   928G11  C08063840   3.967   9.910   7.919
   928G11  C0DO63841   3.928   9.611   8.100
   928G11  C0DJ63842   3.777   9.519   7.888
   928G11  C07K63843   3.773   9.856   7.736
   928G11  C07W63844   3.633   9.523   7.708
   928G11  C08363845   3.514   9.651   7.492
   928G11  C07J63846   3.717   9.924   7.624
   928G11  C06O63847   3.623  10.045   7.385
   928G11  C06M63848   3.480   9.853   7.356
   938G11  C07163849   6.348   7.268   9.843
   938G11  C07L63850   6.255   7.233   9.936
   938G11  C07M63851   6.241   7.295  10.062
   938G11  C07Y63852   6.140   7.261  10.154
   938G11  C08163853   6.034   7.178  10.118
   938G11  C08263854   5.927   7.168  10.211
   938G11  C0DI63855   5.805   7.079  10.203
   938G11  C0DH63856   5.757   6.995  10.103
   938G11  C0DG63857   5.622   6.949  10.136
   938G11  C0E963858   5.566   6.814  10.121
   938G11  C0E863859   5.479   6.800  10.244
   938G11  C0E763860   5.355   6.730  10.260
   938G11  C0EB63861   5.290   6.653  10.148
   938G11  C0EF63862   5.150   6.612  10.134
   938G11  C0EE63863   5.036   6.659  10.196
   938G11  C0FD63864   4.920   6.687  10.113
   938G11  C0FE63865   4.924   6.700   9.972
   938G11  H01B63866   5.013   6.674   9.918
   938G11  C0FF63867   4.804   6.726   9.898
   938G11  H01A63868   4.802   6.726   9.790
   938G11  C0FG63869   4.688   6.745   9.971
   938G11  H01863870   4.596   6.757   9.916
   938G11  C0FH63871   4.682   6.730  10.111
   938G11  C0FI63872   4.562   6.745  10.193
   938G11  H01963873   4.478   6.775  10.131
   938G11  O00K63874   4.549   6.737  10.332
   938G11  C0FL63875   4.673   6.706  10.387
   938G11  C0FK63876   4.796   6.690  10.321
   938G11  C0FM63877   4.914   6.670  10.397
   938G11  C0FN63878   4.901   6.648  10.540
   938G11  C0FP63879   4.780   6.677  10.603
   938G11  C0GO63880   4.761   6.675  10.740
   938G11  C0GN63881   4.651   6.722  10.807
   938G11  C0GR63882   4.537   6.743  10.724
   938G11  C0GS63883   4.413   6.783  10.778
   938G11  H01Q63884   4.321   6.785  10.722
   938G11  C0GT63885   4.410   6.811  10.914
   938G11  H01O63886   4.323   6.866  10.948
   938G11  C0GU63887   4.524   6.792  10.993
   938G11  H01P63888   4.521   6.821  11.097
   938G11  O00L63889   4.542   6.714  10.589
   938G11  C0GM63890   4.647   6.751  10.946
   938G11  C0GL63891   4.777   6.730  11.011
   938G11  H01R63892   4.790   6.769  11.111
   938G11  C0GK63893   4.881   6.663  10.949
   938G11  C0GP63894   5.023   6.638  10.971
   938G11  C0E263895   5.079   6.575  10.857
   938G11  C0E163896   5.217   6.610  10.859
   938G11  C0DU63897   5.287   6.674  10.751
   938G11  C0DT63898   5.255   6.674  10.617
   938G11  C0E463899   5.136   6.649  10.556
   938G11  C0E563900   5.150   6.672  10.419
   938G11  C0DS63901   5.334   6.734  10.519
   938G11  C0DR63902   5.436   6.813  10.568
   938G11  C0DD63903   5.519   6.897  10.493
   938G11  C0DC63904   5.587   6.985  10.595
   938G11  C0DP63905   5.557   6.943  10.732
   938G11  C0DA63906   5.605   7.008  10.860
   938G11  C0D963907   5.720   7.100  10.890
   938G11  C0CR63908   5.765   7.130  11.025
   938G11  C0C063909   5.696   7.082  11.130
   938G11  C0BZ63910   5.729   7.106  11.266
   938G11  C0C163911   5.649   7.043  11.368
   938G11  C0C763912   5.679   7.058  11.503
   938G11  C0C663913   5.604   7.002  11.608
   938G11  C0C963914   5.638   7.024  11.738
   938G11  C0B863915   5.567   6.964  11.842
   938G11  C0B763916   5.609   6.964  11.978
   938G11  C0B663917   5.540   6.923  12.098
   938G11  C0B563918   5.400   6.942  12.113
   938G11  H00Z63919   5.334   6.958  12.029
   938G11  C0B463920   5.378   6.970  12.260
   938G11  H01063921   5.290   6.999  12.315
   938G11  C0B363922   5.505   6.952  12.329
   938G11  C0AP63923   5.593   7.023  12.426
   938G11  C0AQ63924   5.721   7.029  12.368
   938G11  C0AR63925   5.814   7.131  12.403
   938G11  C0AS63926   5.900   7.162  12.300
   938G11  C0AT63927   5.884   7.129  12.165
   938G11  C0BA63928   5.784   7.044  12.136
   938G11  C0AU63929   5.946   7.198  12.061
   938G11  C0BE63930   5.909   7.178  11.928
   938G11  C0BI63931   5.972   7.251  11.829
   938G11  C0BJ63932   6.067   7.347  11.865
   938G11  C0BK63933   6.137   7.414  11.766
   938G11  C0BW63934   6.117   7.384  11.634
   938G11  C0BV63935   6.015   7.296  11.600
   938G11  C0BU63936   5.981   7.274  11.463
   938G11  C0BX63937   5.866   7.200  11.435
   938G11  C0BT63938   6.052   7.342  11.365
   938G11  C0CD63939   6.014   7.329  11.232
   938G11  C0CB63940   5.903   7.240  11.202
   938G11  C0CE63941   6.080   7.398  11.137
   938G11  C0CK63942   6.191   7.475  11.170
   938G11  C0BS63943   6.237   7.487  11.305
   938G11  C0CJ63944   6.348   7.562  11.339
   938G11  C0BP63945   6.375   7.589  11.474
   938G11  C0CI63946   6.483   7.674  11.517
   938G11  C0CH63947   6.478   7.722  11.652
   938G11  H01263948   6.539   7.809  11.672
   938G11  C0BN63949   6.408   7.655  11.753
   938G11  C0CG63950   6.423   7.689  11.886
   938G11  C0CF63951   6.523   7.789  11.925
   938G11  H01363952   6.583   7.844  11.853
   938G11  O00G63953   6.526   7.833  12.054
   938G11  C0AA63954   6.452   7.773  12.150
   938G11  C0A963955   6.450   7.826  12.280
   938G11  H00U63956   6.521   7.905  12.301
   938G11  C0A863957   6.367   7.782  12.380
   938G11  H00V63958   6.392   7.836  12.470
   938G11  C0A763959   6.272   7.684  12.354
   938G11  C0A663960   6.270   7.622  12.218
   938G11  C0A563961   6.181   7.519  12.174
   938G11  C0A463962   6.099   7.453  12.268
   938G11  C0A363963   6.062   7.463  12.406
   938G11  C0A263964   6.082   7.569  12.490
   938G11  C0A163965   6.049   7.563  12.628
   938G11  C0A063966   5.953   7.484  12.711
   938G11  C09Z63967   5.954   7.525  12.848
   938G11  C09Y63968   5.844   7.484  12.930
   938G11  H00Y63969   5.840   7.510  13.035
   938G11  C09X63970   5.740   7.399  12.881
   938G11  C09W63971   5.634   7.361  12.961
   938G11  H00R63972   5.624   7.413  13.055
   938G11  C0AX63973   5.536   7.273  12.923
   938G11  H00S63974   5.457   7.252  12.994
   938G11  C0AW63975   5.554   7.209  12.801
   938G11  H00T63976   5.483   7.134  12.769
   938G11  C0AN63977   5.661   7.238  12.716
   938G11  C0AO63978   5.676   7.183  12.590
   938G11  C0AM63979   5.755   7.338  12.752
   938G11  C0B263980   6.045   7.612  12.914
   938G11  O00D63981   6.052   7.630  13.039
   938G11  C0B163982   6.138   7.675  12.832
   938G11  H00W63983   6.204   7.753  12.867
   938G11  C0AL63984   5.865   7.383  12.664
   938G11  C0AK63985   5.881   7.315  12.547
   938G11  C0B063986   6.136   7.651  12.692
   938G11  C0AZ63987   6.221   7.710  12.594
   938G11  H00X63988   6.289   7.786  12.629
   938G11  C0AJ63989   5.978   7.351  12.443
   938G11  C0AH63990   6.042   7.337  12.222
   938G11  C0AE63991   6.172   7.475  12.039
   938G11  C0AD63992   6.245   7.540  11.944
   938G11  C0AY63993   6.192   7.656  12.467
   938G11  C0AB63994   6.354   7.674  12.116
   938G11  C0AC63995   6.340   7.631  11.979
   938G11  C0BM63996   6.312   7.564  11.712
   938G11  C0CM63997   6.586   7.700  11.422
   938G11  C09M63998   6.550   7.701  11.281
   938G11  C09863999   6.621   7.797  11.199
   938G11  C08R64000   6.639   7.814  11.055
   938G11  C08Q64001   6.715   7.926  11.012
   938G11  C08P64002   6.793   7.969  10.896
   938G11  C08Y64003   6.901   8.050  10.923
   938G11  C09764004   6.943   8.069  11.055
   938G11  C09664005   7.080   8.079  11.069
   938G11  C09064006   7.126   8.102  10.938
   938G11  C09564007   7.262   8.087  10.900
   938G11  C09464008   7.312   8.099  10.770
   938G11  C08J64009   7.245   8.078  10.640
   938G11  C08I64010   7.338   8.025  10.552
   938G11  C08H64011   7.270   7.955  10.448
   938G11  C08G64012   7.128   7.950  10.493
   938G11  C08F64013   6.995   7.908  10.441
   938G11  C08E64014   6.969   7.882  10.302
   938G11  C05964015   7.061   7.921  10.194
   938G11  C05864016   7.017   7.909  10.062
   938G11  C05764017   7.100   7.942   9.951
   938G11  C05664018   7.224   8.007   9.979
   938G11  C05564019   7.258   8.051  10.104
   938G11  C05464020   7.399   8.064  10.106
   938G11  C05364021   7.451   8.015   9.978
   938G11  C05264022   7.583   7.979   9.940
   938G11  C05164023   7.691   7.995  10.038
   938G11  C05U64024   7.684   8.028  10.182
   938G11  C05T64025   7.574   8.025  10.274
   938G11  C06K64026   7.621   8.096  10.387
   938G11  H00J64027   7.564   8.143  10.465
   938G11  C06L64028   7.767   8.105  10.391
   938G11  H00I64029   7.832   8.144  10.468
   938G11  C05V64030   7.804   8.063  10.258
   938G11  C06J64031   7.926   8.056  10.193
   938G11  H00K64032   8.013   8.090  10.249
   938G11  C05X64033   7.943   8.014  10.063
   938G11  C06I64034   8.067   7.994  10.003
   938G11  H00L64035   8.148   8.011  10.073
   938G11  C04Z64036   8.084   7.955   9.871
   938G11  C06H64037   8.216   7.940   9.820
   938G11  H00H64038   8.299   7.956   9.887
   938G11  C04Y64039   8.233   7.889   9.686
   938G11  C06G64040   8.366   7.873   9.635
   938G11  O00964041   8.464   7.899   9.697
   938G11  O00864042   8.385   7.814   9.507
   938G11  C04P64043   8.276   7.783   9.433
   938G11  C04J64044   8.289   7.711   9.303
   938G11  C04Q64045   8.403   7.657   9.242
   938G11  H00E64046   8.496   7.681   9.292
   938G11  C04M64047   8.405   7.571   9.127
   938G11  C04R64048   8.523   7.523   9.061
   938G11  H00F64049   8.621   7.559   9.091
   938G11  C04S64050   8.510   7.436   8.960
   938G11  H00G64051   8.597   7.399   8.907
   938G11  O00764052   8.387   7.394   8.913
   938G11  C03V64053   8.273   7.453   8.961
   938G11  C03U64054   8.155   7.431   8.903
   938G11  O00664055   8.162   7.344   8.799
   938G11  C03F64056   8.046   7.299   8.745
   938G11  C03E64057   7.914   7.337   8.797
   938G11  C03D64058   7.910   7.431   8.904
   938G11  C03C64059   7.784   7.459   8.960
   938G11  C03B64060   7.672   7.397   8.899
   938G11  C03A64061   7.547   7.437   8.952
   938G11  C03964062   7.529   7.523   9.063
   938G11  C03864063   7.383   7.528   9.074
   938G11  C03764064   7.334   7.454   8.964
   938G11  C03664065   7.203   7.434   8.949
   938G11  C02R64066   7.141   7.342   8.869
   938G11  C03564067   7.012   7.341   8.918
   938G11  C03R64068   6.994   7.429   9.022
   938G11  C03S64069   6.904   7.403   9.126
   938G11  C04964070   6.919   7.468   9.245
   938G11  C04864071   7.042   7.547   9.255
   938G11  C03P64072   7.151   7.548   9.160
   938G11  C04764073   7.036   7.624   9.377
   938G11  C04664074   7.139   7.706   9.421
   938G11  C04564075   7.268   7.725   9.374
   938G11  C03T64076   7.339   7.669   9.271
   938G11  C04464077   7.474   7.711   9.281
   938G11  C04364078   7.480   7.805   9.384
   938G11  C04264079   7.606   7.789   9.445
   938G11  C04164080   7.687   7.718   9.348
   938G11  C04064081   7.826   7.724   9.349
   938G11  C03Z64082   7.914   7.675   9.246
   938G11  C04H64083   8.045   7.713   9.286
   938G11  C04G64084   8.033   7.778   9.409
   938G11  C03N64085   7.905   7.588   9.129
   938G11  C03Y64086   8.029   7.553   9.069
   938G11  C03X64087   8.158   7.587   9.123
   938G11  C04F64088   7.904   7.776   9.456
   938G11  C04E64089   7.881   7.829   9.585
   938G11  C04O64090   7.990   7.871   9.665
   938G11  C04D64091   7.755   7.858   9.644
   938G11  C04V64092   7.745   7.906   9.776
   938G11  C04W64093   7.854   7.940   9.857
   938G11  C04C64094   7.628   7.842   9.583
   938G11  C04L64095   7.534   7.887   9.691
   938G11  C04U64096   7.401   7.935   9.660
   938G11  C05Q64097   7.313   7.954   9.766
   938G11  C05P64098   7.182   7.911   9.729
   938G11  C04T64099   7.192   7.849   9.609
   938G11  C04B64100   7.321   7.870   9.566
   938G11  C03M64101   7.605   7.665   9.241
   938G11  C04A64102   7.357   7.809   9.445
   938G11  C05H64103   7.097   7.771   9.535
   938G11  C05G64104   6.973   7.715   9.571
   938G11  C05F64105   6.905   7.748   9.686
   938G11  C05E64106   6.796   7.674   9.737
   938G11  C05L64107   6.713   7.561   9.694
   938G11  C05K64108   6.725   7.499   9.566
   938G11  C05J64109   6.823   7.516   9.466
   938G11  C06664110   6.630   7.396   9.548
   938G11  C06564111   6.539   7.352   9.648
   938G11  C06464112   6.538   7.408   9.775
   938G11  C06N64113   6.449   7.249   9.622
   938G11  C06964114   6.466   7.173   9.505
   938G11  C06P64115   6.382   7.066   9.484
   938G11  C06R64116   6.378   6.996   9.364
   938G11  C06B64117   6.472   7.026   9.268
   938G11  C06S64118   6.473   6.944   9.154
   938G11  C02G64119   6.563   6.977   9.056
   938G11  C02F64120   6.570   6.900   8.942
   938G11  C02764121   6.490   6.791   8.927
   938G11  C02664122   6.508   6.706   8.816
   938G11  C00E64123   6.431   6.585   8.814
   938G11  C00D64124   6.454   6.500   8.709
   938G11  C00C64125   6.390   6.379   8.705
   938G11  C00B64126   6.305   6.335   8.798
   938G11  C01564127   6.282   6.423   8.910
   938G11  C07F64128   6.196   6.387   9.007
   938G11  C07E64129   6.175   6.472   9.113
   938G11  C06W64130   6.241   6.598   9.119
   938G11  C06V64131   6.331   6.633   9.019
   938G11  C06X64132   6.229   6.686   9.229
   938G11  C07B64133   6.133   6.652   9.325
   938G11  C07C64134   6.060   6.537   9.314
   938G11  C0FU64135   5.956   6.513   9.407
   938G11  C0F764136   5.886   6.396   9.401
   938G11  C0F664137   5.787   6.372   9.499
   938G11  C0F864138   5.715   6.251   9.495
   938G11  C0F964139   5.617   6.232   9.586
   938G11  C0FA64140   5.546   6.109   9.582
   938G11  C0FZ64141   5.590   6.009   9.496
   938G11  C0G064142   5.530   5.880   9.505
   938G11  C0GD64143   5.424   5.854   9.598
   938G11  C0FC64144   5.368   5.960   9.671
   938G11  C0GH64145   5.250   5.951   9.747
   938G11  C0EY64146   5.199   6.065   9.813
   938G11  C0EX64147   5.065   6.068   9.867
   938G11  C0EW64148   5.013   6.187   9.920
   938G11  C0FR64149   4.878   6.192   9.956
   938G11  H01D64150   4.833   6.282   9.997
   938G11  C0FS64151   4.794   6.085   9.938
   938G11  H01C64152   4.690   6.088   9.965
   938G11  C0GJ64153   4.850   5.967   9.897
   938G11  H01N64154   4.785   5.880   9.896
   938G11  C0EV64155   5.095   6.297   9.943
   938G11  C0FT64156   5.052   6.411  10.010
   938G11  H01E64157   4.955   6.425  10.054
   938G11  C0EU64158   5.227   6.288   9.891
   938G11  C0ET64159   5.315   6.394   9.910
   938G11  C0EI64160   5.438   6.406   9.851
   938G11  C0F164161   5.473   6.303   9.763
   938G11  C0F064162   5.391   6.195   9.750
   938G11  C0EH64163   5.517   6.521   9.876
   938G11  C0EG64164   5.488   6.614   9.980
   938G11  C0EJ64165   5.624   6.542   9.791
   938G11  C0F364166   5.650   6.451   9.686
   938G11  C0EK64167   5.706   6.655   9.804
   938G11  C0EL64168   5.688   6.742   9.912
   938G11  C0EM64169   5.786   6.848   9.916
   938G11  C0EN64170   5.887   6.856   9.821
   938G11  C07I64171   5.984   6.948   9.844
   938G11  C07464172   6.091   6.971   9.759
   938G11  C07364173   6.171   7.074   9.790
   938G11  C07264174   6.269   7.104   9.696
   938G11  C07564175   6.093   6.900   9.644
   938G11  C07664176   5.999   6.799   9.625
   938G11  C07864177   6.014   6.714   9.519
   938G11  C07G64178   6.192   6.931   9.557
   938G11  C07064179   6.198   6.850   9.448
   938G11  C07Z64180   5.950   7.021   9.956
   938G11  C07764181   5.898   6.773   9.712
   938G11  C0EO64182   5.805   6.673   9.705
   938G11  C0F464183   5.833   6.582   9.601
   938G11  C0EQ64184   5.274   6.493   9.989
   938G11  C0FQ64185   4.986   5.957   9.857
   938G11  C0GI64186   5.048   5.839   9.812
   938G11  H01L64187   4.990   5.748   9.814
   938G11  C0EZ64188   5.274   6.177   9.819
   938G11  C0GG64189   5.178   5.834   9.758
   938G11  C0GF64190   5.243   5.718   9.704
   938G11  H01M64191   5.187   5.626   9.710
   938G11  C0GE64192   5.352   5.729   9.620
   938G11  H01K64193   5.398   5.642   9.575
   938G11  O00J64194   5.569   5.781   9.421
   938G11  C0GA64195   5.674   5.804   9.334
   938G11  C0G964196   5.715   5.700   9.258
   938G11  H01H64197   5.668   5.603   9.273
   938G11  C0G864198   5.814   5.718   9.156
   938G11  C0G764199   5.862   5.612   9.069
   938G11  H01I64200   5.833   5.508   9.075
   938G11  O00I64201   5.939   5.638   8.961
   938G11  C0G664202   6.002   5.758   8.954
   938G11  H01J64203   6.070   5.767   8.872
   938G11  C02D64204   5.964   5.873   9.040
   938G11  C02C64205   6.023   6.002   9.029
   938G11  C01764206   6.106   6.042   8.915
   938G11  C01664207   6.165   6.172   8.911
   938G11  O00164208   6.131   5.959   8.808
   938G11  C01864209   6.216   5.991   8.704
   938G11  C00964210   6.275   6.116   8.689
   938G11  C00864211   6.374   6.166   8.596
   938G11  C00764212   6.449   6.111   8.486
   938G11  C00664213   6.435   5.973   8.444
   938G11  C00564214   6.517   5.916   8.341
   938G11  C00464215   6.623   5.973   8.263
   938G11  C00364216   6.701   6.094   8.275
   938G11  C00264217   6.826   6.110   8.207
   938G11  C00P64218   6.905   6.224   8.218
   938G11  C00O64219   7.031   6.231   8.160
   938G11  C00N64220   7.107   6.344   8.168
   938G11  C01064221   7.236   6.354   8.105
   938G11  C01164222   7.322   6.464   8.137
   938G11  C01Q64223   7.457   6.452   8.104
   938G11  C01U64224   7.508   6.344   8.034
   938G11  C01264225   7.416   6.244   7.995
   938G11  H00064226   7.463   6.163   7.941
   938G11  C01V64227   7.646   6.340   8.008
   938G11  H00764228   7.673   6.249   7.956
   938G11  O00564229   7.740   6.440   8.033
   938G11  C01W64230   7.687   6.546   8.104
   938G11  C03164231   7.781   6.645   8.140
   938G11  C03264232   7.723   6.765   8.186
   938G11  H00A64233   7.791   6.844   8.215
   938G11  C03364234   7.586   6.783   8.211
   938G11  H00B64235   7.562   6.886   8.234
   938G11  C01O64236   7.500   6.672   8.198
   938G11  C01N64237   7.373   6.679   8.252
   938G11  C01M64238   7.322   6.794   8.335
   938G11  C01L64239   7.365   6.914   8.429
   938G11  C01K64240   7.241   6.958   8.478
   938G11  C01Y64241   7.228   7.049   8.590
   938G11  C02I64242   7.340   7.118   8.639
   938G11  C02N64243   7.318   7.218   8.734
   938G11  C02M64244   7.430   7.282   8.792
   938G11  C02L64245   7.558   7.243   8.745
   938G11  C02K64246   7.574   7.133   8.658
   938G11  C02U64247   7.707   7.091   8.625
   938G11  C02V64248   7.817   7.166   8.661
   938G11  C03H64249   7.940   7.144   8.592
   938G11  H00C64250   7.951   7.071   8.513
   938G11  C02W64251   7.723   6.964   8.572
   938G11  C02X64252   7.611   6.898   8.536
   938G11  C02Y64253   7.658   6.771   8.495
   938G11  H00864254   7.603   6.685   8.460
   938G11  C02Z64255   7.806   6.770   8.506
   938G11  O00464256   7.887   6.683   8.481
   938G11  O00364257   7.839   6.891   8.559
   938G11  C02J64258   7.465   7.068   8.602
   938G11  C01Z64259   7.099   7.062   8.636
   938G11  C02064260   6.995   6.980   8.595
   938G11  C01I64261   7.011   6.886   8.495
   938G11  C01H64262   6.928   6.782   8.467
   938G11  C00K64263   6.969   6.679   8.379
   938G11  C01S64264   7.094   6.678   8.320
   938G11  C01464265   7.152   6.565   8.261
   938G11  C00J64266   6.896   6.558   8.373
   938G11  C00I64267   6.781   6.555   8.448
   938G11  C00H64268   6.739   6.657   8.532
   938G11  C00G64269   6.627   6.642   8.619
   938G11  C00S64270   6.710   6.433   8.445
   938G11  C00T64271   6.599   6.430   8.527
   938G11  C00U64272   6.521   6.316   8.514
   938G11  C00R64273   6.745   6.322   8.363
   938G11  C00L64274   6.940   6.449   8.300
   938G11  C02864275   6.821   6.764   8.550
   938G11  C02364276   6.792   6.860   8.648
   938G11  C02464277   6.685   6.839   8.735
   938G11  C02164278   6.878   6.968   8.668
   938G11  C02264279   6.852   7.056   8.770
   938G11  C02H64280   6.746   7.040   8.857
   938G11  C03064281   6.732   7.121   8.969
   938G11  C03464282   6.818   7.223   8.988
   938G11  C02P64283   6.952   7.149   8.798
   938G11  C02B64284   7.076   7.153   8.734
   938G11  C01J64285   7.135   6.887   8.430
   938G11  C01X64286   7.477   6.951   8.513
   938G11  C01T64287   7.180   6.790   8.346
   938G11  H00964288   7.888   6.625   8.140
   938G11  C01P64289   7.548   6.555   8.135
   938G11  C01R64290   7.282   6.573   8.217
   938G11  C00Z64291   7.286   6.244   8.037
   938G11  O00064292   7.204   6.133   8.018
   938G11  C00M64293   7.064   6.455   8.234
   938G11  C00Y64294   7.077   6.126   8.079
   938G11  C01364295   6.992   6.017   8.063
   938G11  H00164296   7.008   5.939   7.991
   938G11  C00Q64297   6.864   6.334   8.290
   938G11  C00164298   6.869   6.009   8.119
   938G11  C00064299   6.784   5.900   8.093
   938G11  H00664300   6.826   5.831   8.022
   938G11  C00W64301   6.665   6.206   8.352
   938G11  C01G64302   6.665   5.881   8.160
   938G11  H00564303   6.605   5.798   8.125
   938G11  C01C64304   6.468   5.782   8.339
   938G11  H00264305   6.501   5.702   8.275
   938G11  C01B64306   6.366   5.763   8.436
   938G11  C01D64307   6.310   5.639   8.479
   938G11  H00364308   6.329   5.544   8.431
   938G11  C01E64309   6.241   5.643   8.596
   938G11  H00464310   6.212   5.549   8.641
   938G11  O00264311   6.203   5.755   8.662
   938G11  C01A64312   6.346   5.879   8.503
   938G11  C00V64313   6.545   6.203   8.440
   938G11  C01964314   6.257   5.877   8.619
   938G11  C02E64315   5.989   6.104   9.120
   938G11  C0FX64316   5.893   6.079   9.215
   938G11  C0FW64317   5.847   6.178   9.303
   938G11  C0GB64318   5.830   5.949   9.224
   938G11  C0G364319   6.044   6.231   9.112
   938G11  C07H64320   6.014   6.325   9.205
   938G11  C0GC64321   5.870   5.845   9.140
   938G11  C0G264322   5.730   5.932   9.320
   938G11  C0G164323   5.686   6.033   9.401
   938G11  C0FB64324   5.433   6.088   9.669
   938G11  C0F264325   5.580   6.328   9.679
   938G11  C0FY64326   5.742   6.156   9.394
   938G11  C0F564327   5.755   6.471   9.591
   938G11  C0FV64328   5.917   6.298   9.304
   938G11  C07964329   5.938   6.599   9.510
   938G11  C07A64330   6.112   6.741   9.430
   938G11  C06Y64331   6.303   6.799   9.239
   938G11  C07D64332   6.084   6.446   9.216
   938G11  C01F64333   6.137   6.263   9.009
   938G11  C00A64334   6.249   6.204   8.798
   938G11  C00X64335   6.421   6.290   8.606
   938G11  C00F64336   6.551   6.526   8.614
   938G11  C02964337   6.347   6.550   8.912
   938G11  C02564338   6.602   6.731   8.719
   938G11  C06U64339   6.409   6.748   9.030
   938G11  C02A64340   6.666   6.925   8.845
   938G11  C05Y64341   6.643   7.090   9.067
   938G11  C05Z64342   6.637   7.172   9.184
   938G11  C06064343   6.725   7.274   9.200
   938G11  C06264344   6.724   7.352   9.320
   938G11  C06T64345   6.393   6.830   9.143
   938G11  C06A64346   6.552   7.136   9.282
   938G11  C06Z64347   6.293   6.883   9.351
   938G11  C06Q64348   6.281   7.032   9.579
   938G11  C06864349   6.551   7.208   9.406
   938G11  C06764350   6.636   7.317   9.427
   938G11  C06364351   6.624   7.514   9.800
   938G11  C06C64352   6.618   7.568   9.934
   938G11  C06D64353   6.699   7.669   9.973
   938G11  C06E64354   6.713   7.711  10.103
   938G11  C07Q64355   6.631   7.667  10.200
   938G11  C07P64356   6.528   7.582  10.161
   938G11  C07T64357   6.433   7.542  10.253
   938G11  C07U64358   6.338   7.449  10.218
   938G11  C07V64359   6.236   7.420  10.309
   938G11  C08464360   6.241   7.479  10.434
   938G11  C08C64361   6.345   7.555  10.475
   938G11  C08B64362   6.360   7.595  10.605
   938G11  C08A64363   6.464   7.670  10.633
   938G11  C08964364   6.567   7.712  10.551
   938G11  C08864365   6.676   7.790  10.588
   938G11  C08764366   6.772   7.825  10.498
   938G11  C08664367   6.757   7.790  10.366
   938G11  C08X64368   6.695   7.818  10.722
   938G11  C08T64369   6.610   7.751  10.817
   938G11  C08D64370   6.552   7.674  10.419
   938G11  C08U64371   6.500   7.685  10.769
   938G11  C08V64372   6.422   7.625  10.865
   938G11  C0CY64373   6.303   7.559  10.834
   938G11  C0CX64374   6.225   7.517  10.939
   938G11  C0CW64375   6.112   7.442  10.905
   938G11  C0CV64376   6.078   7.421  10.769
   938G11  C0D464377   6.166   7.473  10.668
   938G11  C0CU64378   5.981   7.328  10.738
   938G11  C0CT64379   5.904   7.257  10.834
   938G11  C0CS64380   5.943   7.284  10.966
   938G11  C0D664381   5.967   7.301  10.608
   938G11  C0EC64382   6.052   7.349  10.504
   938G11  C07X64383   6.039   7.305  10.369
   938G11  C0DL64384   5.859   7.221  10.567
   938G11  C0DK64385   5.833   7.200  10.435
   938G11  C0DN64386   5.724   7.121  10.435
   938G11  C0D864387   5.770   7.161  10.653
   938G11  C08W64388   6.474   7.642  10.991
   938G11  C0CQ64389   6.393   7.597  11.105
   938G11  C09364390   6.277   7.543  10.706
   938G11  C09264391   6.153   7.437  10.536
   938G11  C08564392   6.443   7.594  10.381
   938G11  C07S64393   6.646   7.711  10.328
   938G11  C06F64394   6.816   7.798  10.137
   938G11  C07O64395   6.527   7.524  10.031
   938G11  C07N64396   6.436   7.425   9.998
   938G11  C05D64397   6.780   7.720   9.873
   938G11  C05C64398   6.874   7.805   9.909
   938G11  C05N64399   6.958   7.819   9.800
   938G11  C05M64400   6.933   7.615   9.480
   938G11  C05I64401   6.820   7.449   9.345
   938G11  C06164402   6.813   7.308   9.099
   938G11  C02Q64403   6.925   7.231   8.905
   938G11  C02O64404   7.181   7.235   8.777
   938G11  C03Q64405   7.115   7.483   9.045
   938G11  C03O64406   7.291   7.582   9.176
   938G11  C03L64407   7.644   7.577   9.132
   938G11  C02S64408   7.429   7.384   8.895
   938G11  C02T64409   7.672   7.303   8.798
   938G11  C03K64410   7.775   7.543   9.072
   938G11  C03I64411   7.801   7.272   8.752
   938G11  C03G64412   8.059   7.207   8.641
   938G11  H00D64413   8.151   7.174   8.594
   938G11  C03J64414   8.033   7.477   8.954
   938G11  C03W64415   8.278   7.536   9.072
   938G11  C04I64416   8.171   7.673   9.230
   938G11  C04K64417   8.147   7.810   9.482
   938G11  C04N64418   8.122   7.860   9.610
   938G11  C04X64419   7.975   7.923   9.795
   938G11  C05064420   7.826   7.984   9.987
   938G11  C05W64421   7.611   7.921   9.814
   938G11  C05S64422   7.435   8.017  10.237
   938G11  C05R64423   7.335   8.000   9.896
   938G11  C05O64424   7.076   7.898   9.820
   938G11  C05B64425   6.905   7.841  10.043
   938G11  C05A64426   7.198   7.975  10.206
   938G11  C07R64427   6.846   7.832  10.269
   938G11  C08N64428   6.889   7.891  10.536
   938G11  C08M64429   6.899   7.938  10.671
   938G11  C08L64430   7.014   8.003  10.718
   938G11  C09164431   7.309   7.978  10.308
   938G11  C09K64432   7.458   7.982  10.631
   938G11  H00M64433   7.536   7.913  10.601
   938G11  C08K64434   7.122   8.009  10.623
   938G11  C09J64435   7.444   8.049  10.758
   938G11  C09I64436   7.485   8.033  10.894
   938G11  C09L64437   7.612   8.017  10.948
   938G11  H00N64438   7.700   8.009  10.885
   938G11  C09Q64439   7.622   8.012  11.078
   938G11  H00O64440   7.724   8.013  11.115
   938G11  O00B64441   7.520   8.011  11.168
   938G11  C09G64442   7.389   8.039  11.124
   938G11  C09F64443   7.289   8.029  11.218
   938G11  O00A64444   7.334   8.012  11.346
   938G11  C09P64445   7.245   8.032  11.445
   938G11  H00P64446   7.250   8.129  11.493
   938G11  C09O64447   7.115   7.981  11.430
   938G11  C09D64448   7.058   8.000  11.304
   938G11  C09C64449   6.917   7.981  11.270
   938G11  C09N64450   6.806   7.904  11.322
   938G11  C09T64451   6.822   7.818  11.433
   938G11  C09S64452   6.925   7.847  11.531
   938G11  C0CP64453   6.879   7.775  11.638
   938G11  C0CN64454   6.757   7.702  11.616
   938G11  C0CO64455   6.722   7.622  11.721
   938G11  H01464456   6.643   7.548  11.714
   938G11  C0CZ64457   6.790   7.616  11.842
   938G11  H01564458   6.749   7.555  11.921
   938G11  C0D064459   6.910   7.691  11.866
   938G11  C0G564460   6.988   7.703  11.989
   938G11  H01F64461   6.951   7.660  12.080
   938G11  C0G464462   7.102   7.775  11.991
   938G11  H01G64463   7.149   7.794  12.087
   938G11  O00H64464   7.154   7.835  11.887
   938G11  C0D264465   7.080   7.834  11.771
   938G11  C09V64466   7.122   7.911  11.658
   938G11  H00Q64467   7.214   7.965  11.671
   938G11  C0D164468   6.959   7.772  11.759
   938G11  C09R64469   7.051   7.915  11.532
   938G11  C09H64470   7.376   8.065  10.982
   938G11  C09E64471   7.146   8.043  11.195
   938G11  C09B64472   6.863   8.032  11.158
   938G11  C08Z64473   7.018   8.052  10.850
   938G11  C08O64474   6.796   7.906  10.766
   938G11  C09A64475   6.727   7.992  11.137
   938G11  C08S64476   6.590   7.726  10.962
   938G11  C09964477   6.694   7.911  11.242
   938G11  C09U64478   6.714   7.735  11.485
   938G11  C0BO64479   6.294   7.538  11.574
   938G11  C0CL64480   6.433   7.618  11.239
   938G11  C0D364481   6.272   7.531  11.072
   938G11  C0D564482   6.045   7.375  11.004
   938G11  C0BR64483   6.161   7.424  11.401
   938G11  C0BQ64484   6.191   7.446  11.534
   938G11  C0BL64485   6.236   7.502  11.807
   938G11  C0AF64486   6.094   7.372  11.997
   938G11  C0BH64487   5.942   7.227  11.695
   938G11  C0BG64488   5.828   7.154  11.668
   938G11  C0BD64489   5.804   7.093  11.902
   938G11  C0AG64490   6.033   7.295  12.090
   938G11  C0AI64491   5.978   7.273  12.328
   938G11  C0AV64492   5.789   7.214  12.513
   938G11  C0BB64493   5.715   6.974  12.241
   938G11  O00C64494   5.566   7.106  12.537
   938G11  C0BC64495   5.592   6.908  12.226
   938G11  C0B964496   5.735   7.028  12.005
   938G11  O00E64497   5.457   6.892  11.816
   938G11  C0CA64498   5.402   6.889  11.694
   938G11  O00F64499   5.295   6.828  11.682
   938G11  C0BF64500   5.753   7.098  11.770
   938G11  C0C564501   5.484   6.935  11.580
   938G11  C0C464502   5.442   6.906  11.446
   938G11  H01164503   5.347   6.865  11.416
   938G11  C0C864504   5.787   7.143  11.536
   938G11  C0C264505   5.530   6.968  11.342
   938G11  C0C364506   5.499   6.957  11.206
   938G11  C0DY64507   5.393   6.878  11.153
   938G11  H01664508   5.314   6.822  11.199
   938G11  C0DX64509   5.418   6.883  11.012
   938G11  C0DW64510   5.352   6.787  10.933
   938G11  C0BY64511   5.835   7.178  11.303
   938G11  C0DB64512   5.574   7.008  11.109
   938G11  C0CC64513   5.873   7.213  11.063
   938G11  C0D764514   5.804   7.171  10.795
   938G11  C0DZ64515   5.527   6.969  10.980
   938G11  C0DM64516   5.676   7.089  10.569
   938G11  C0DQ64517   5.462   6.841  10.706
   938G11  C0DV64518   5.380   6.771  10.795
   938G11  C0E064519   5.249   6.684  10.972
   938G11  C0FO64520   4.987   6.592  10.757
   938G11  C0E364521   5.123   6.711  11.044
   938G11  H01764522   5.102   6.800  11.102
   938G11  C0GV64523   4.865   6.626  10.815
   938G11  C0ES64524   5.009   6.622  10.617
   938G11  C0GQ64525   4.667   6.703  10.528
   938G11  C0FJ64526   4.798   6.704  10.180
   938G11  C0ED64527   5.037   6.669  10.329
   938G11  C0ER64528   5.146   6.502  10.043
   938G11  C0EP64529   5.355   6.593  10.039
   938G11  C0E664530   5.286   6.714  10.389
   938G11  C0DE64531   5.519   6.899  10.342
   938G11  C0EA64532   5.576   6.727  10.003
   938G11  C0DF64533   5.601   6.990  10.268
   938G11  C08064534   5.828   6.958   9.996
   938G11  C0DO64535   5.705   7.067  10.309
   938G11  C0DJ64536   5.935   7.230  10.335
   938G11  C07K64537   6.049   7.114   9.996
   938G11  C07W64538   6.135   7.333  10.276
   938G11  C08364539   6.336   7.392  10.093
   938G11  C07J64540   6.161   7.141   9.907
   938G11  C06O64541   6.351   7.210   9.716
   938G11  C06M64542   6.447   7.366   9.875
   948G11  C07164543   6.475   6.653   8.267
   948G11  C07L64544   6.399   6.538   8.255
   948G11  C07M64545   6.439   6.429   8.176
   948G11  C07Y64546   6.369   6.308   8.167
   948G11  C08164547   6.254   6.286   8.251
   948G11  C08264548   6.190   6.156   8.243
   948G11  C0DI64549   6.086   6.089   8.328
   948G11  C0DH64550   6.007   6.135   8.439
   948G11  C0DG64551   5.892   6.043   8.468
   948G11  C0E964552   5.845   6.003   8.598
   948G11  C0E864553   5.845   5.848   8.586
   948G11  C0E764554   5.776   5.756   8.677
   948G11  C0EB64555   5.677   5.803   8.775
   948G11  C0EF64556   5.563   5.722   8.832
   948G11  C0EE64557   5.509   5.597   8.814
   948G11  C0FD64558   5.373   5.582   8.849
   948G11  C0FE64559   5.279   5.686   8.858
   948G11  H01B64560   5.317   5.779   8.819
   948G11  C0FF64561   5.152   5.672   8.901
   948G11  H01A64562   5.086   5.757   8.912
   948G11  C0FG64563   5.107   5.539   8.935
   948G11  H01864564   5.004   5.525   8.964
   948G11  C0FH64565   5.193   5.424   8.925
   948G11  C0FI64566   5.161   5.288   8.948
   948G11  H01964567   5.060   5.256   8.969
   948G11  O00K64568   5.248   5.186   8.947
   948G11  C0FL64569   5.373   5.218   8.910
   948G11  C0FK64570   5.422   5.351   8.887
   948G11  C0FM64571   5.558   5.364   8.851
   948G11  C0FN64572   5.645   5.253   8.851
   948G11  C0FP64573   5.592   5.126   8.878
   948G11  C0GO64574   5.667   5.012   8.865
   948G11  C0GN64575   5.610   4.887   8.839
   948G11  C0GR64576   5.469   4.882   8.857
   948G11  C0GS64577   5.394   4.769   8.829
   948G11  H01Q64578   5.289   4.761   8.851
   948G11  C0GT64579   5.462   4.662   8.775
   948G11  H01O64580   5.417   4.566   8.755
   948G11  C0GU64581   5.598   4.670   8.742
   948G11  H01P64582   5.639   4.580   8.699
   948G11  O00L64583   5.402   4.989   8.916
   948G11  C0GM64584   5.679   4.785   8.771
   948G11  C0GL64585   5.818   4.816   8.729
   948G11  H01R64586   5.880   4.747   8.675
   948G11  C0GK64587   5.873   4.936   8.759
   948G11  C0GP64588   5.997   5.002   8.722
   948G11  C0E264589   6.003   5.131   8.784
   948G11  C0E164590   6.072   5.217   8.692
   948G11  C0DU64591   6.023   5.338   8.637
   948G11  C0DT64592   5.931   5.431   8.688
   948G11  C0E464593   5.818   5.397   8.769
   948G11  C0E564594   5.734   5.507   8.765
   948G11  C0DS64595   5.896   5.544   8.617
   948G11  C0DR64596   5.945   5.553   8.487
   948G11  C0DD64597   5.949   5.671   8.407
   948G11  C0DC64598   6.037   5.636   8.292
   948G11  C0DP64599   6.078   5.496   8.297
   948G11  C0DA64600   6.156   5.421   8.198
   948G11  C0D964601   6.226   5.463   8.072
   948G11  C0CR64602   6.282   5.364   7.984
   948G11  C0C064603   6.259   5.229   8.000
   948G11  C0BZ64604   6.311   5.124   7.924
   948G11  C0C164605   6.283   4.990   7.955
   948G11  C0C764606   6.327   4.892   7.862
   948G11  C0C664607   6.298   4.752   7.888
   948G11  C0C964608   6.330   4.654   7.797
   948G11  C0B864609   6.304   4.520   7.826
   948G11  C0B764610   6.335   4.417   7.735
   948G11  C0B664611   6.332   4.274   7.748
   948G11  C0B564612   6.392   4.217   7.863
   948G11  H00Z64613   6.406   4.248   7.966
   948G11  C0B464614   6.456   4.090   7.817
   948G11  H01064615   6.537   4.028   7.855
   948G11  C0B364616   6.422   4.071   7.677
   948G11  C0AP64617   6.510   4.041   7.560
   948G11  C0AQ64618   6.487   4.142   7.473
   948G11  C0AR64619   6.576   4.168   7.365
   948G11  C0AS64620   6.559   4.299   7.327
   948G11  C0AT64621   6.491   4.401   7.400
   948G11  C0BA64622   6.415   4.369   7.504
   948G11  C0AU64623   6.519   4.537   7.376
   948G11  C0BE64624   6.485   4.633   7.470
   948G11  C0BI64625   6.529   4.763   7.456
   948G11  C0BJ64626   6.618   4.794   7.353
   948G11  C0BK64627   6.668   4.921   7.339
   948G11  C0BW64628   6.637   5.019   7.433
   948G11  C0BV64629   6.547   4.992   7.535
   948G11  C0BU64630   6.507   5.094   7.624
   948G11  C0BX64631   6.425   5.058   7.727
   948G11  C0BT64632   6.553   5.223   7.608
   948G11  C0CD64633   6.509   5.322   7.691
   948G11  C0CB64634   6.420   5.293   7.796
   948G11  C0CE64635   6.551   5.450   7.678
   948G11  C0CK64636   6.663   5.475   7.593
   948G11  C0BS64637   6.713   5.371   7.513
   948G11  C0CJ64638   6.823   5.390   7.428
   948G11  C0BP64639   6.863   5.289   7.341
   948G11  C0CI64640   6.973   5.306   7.258
   948G11  C0CH64641   6.983   5.223   7.143
   948G11  H01264642   7.071   5.243   7.084
   948G11  C0BN64643   6.902   5.108   7.127
   948G11  C0CG64644   6.936   5.010   7.034
   948G11  C0CF64645   7.022   5.043   6.921
   948G11  H01364646   7.035   5.149   6.908
   948G11  O00G64647   7.059   4.951   6.828
   948G11  C0AA64648   7.051   4.820   6.871
   948G11  C0A964649   7.121   4.725   6.800
   948G11  H00U64650   7.182   4.760   6.718
   948G11  C0A864651   7.107   4.588   6.834
   948G11  H00V64652   7.162   4.512   6.781
   948G11  C0A764653   7.029   4.548   6.947
   948G11  C0A664654   6.940   4.646   7.007
   948G11  C0A564655   6.834   4.620   7.101
   948G11  C0A464656   6.794   4.482   7.131
   948G11  C0A364657   6.841   4.345   7.107
   948G11  C0A264658   6.978   4.323   7.068
   948G11  C0A164659   7.043   4.198   7.085
   948G11  C0A064660   7.015   4.069   7.160
   948G11  C09Z64661   7.122   3.978   7.153
   948G11  C09Y64662   7.106   3.840   7.190
   948G11  H00Y64663   7.181   3.764   7.173
   948G11  C09X64664   6.989   3.812   7.269
   948G11  C09W64665   6.978   3.681   7.316
   948G11  H00R64666   7.052   3.611   7.282
   948G11  C0AX64667   6.876   3.639   7.399
   948G11  H00S64668   6.861   3.538   7.433
   948G11  C0AW64669   6.788   3.738   7.438
   948G11  H00T64670   6.710   3.716   7.509
   948G11  C0AN64671   6.785   3.868   7.385
   948G11  C0AO64672   6.687   3.964   7.418
   948G11  C0AM64673   6.890   3.908   7.292
   948G11  C0B264674   7.258   4.000   7.096
   948G11  O00D64675   7.347   3.918   7.113
   948G11  C0B164676   7.275   4.118   7.017
   948G11  H00W64677   7.367   4.141   6.965
   948G11  C0AL64678   6.894   4.040   7.232
   948G11  C0AK64679   6.780   4.122   7.246
   948G11  C0B064680   7.166   4.209   7.015
   948G11  C0AZ64681   7.168   4.338   6.954
   948G11  H00X64682   7.251   4.375   6.894
   948G11  C0AJ64683   6.767   4.254   7.189
   948G11  C0AH64684   6.675   4.468   7.206
   948G11  C0AE64685   6.760   4.723   7.163
   948G11  C0AD64686   6.802   4.853   7.149
   948G11  C0AY64687   7.048   4.410   6.986
   948G11  C0AB64688   6.962   4.779   6.978
   948G11  C0AC64689   6.895   4.881   7.046
   948G11  C0BM64690   6.813   5.081   7.228
   948G11  C0CM64691   7.065   5.406   7.302
   948G11  C09M64692   7.014   5.527   7.356
   948G11  C09864693   7.094   5.646   7.335
   948G11  C08R64694   7.091   5.783   7.387
   948G11  C08Q64695   7.194   5.873   7.343
   948G11  C08P64696   7.270   5.984   7.394
   948G11  C08Y64697   7.400   5.994   7.344
   948G11  C09764698   7.458   5.885   7.272
   948G11  C09664699   7.589   5.881   7.301
   948G11  C09064700   7.621   6.011   7.355
   948G11  C09564701   7.746   6.041   7.421
   948G11  C09464702   7.779   6.168   7.487
   948G11  C08J64703   7.693   6.273   7.518
   948G11  C08I64704   7.742   6.337   7.630
   948G11  C08H64705   7.641   6.416   7.695
   948G11  C08G64706   7.517   6.357   7.646
   948G11  C08F64707   7.374   6.371   7.677
   948G11  C08E64708   7.326   6.477   7.755
   948G11  C05964709   7.398   6.601   7.776
   948G11  C05864710   7.338   6.713   7.834
   948G11  C05764711   7.396   6.834   7.863
   948G11  C05664712   7.532   6.844   7.832
   948G11  C05564713   7.595   6.750   7.757
   948G11  C05464714   7.729   6.770   7.777
   948G11  C05364715   7.752   6.880   7.872
   948G11  C05264716   7.866   6.921   7.944
   948G11  C05164717   7.991   6.848   7.935
   948G11  C05U64718   8.018   6.720   7.862
   948G11  C05T64719   7.931   6.630   7.789
   948G11  C06K64720   8.016   6.534   7.729
   948G11  H00J64721   7.973   6.456   7.667
   948G11  C06L64722   8.149   6.551   7.774
   948G11  H00I64723   8.234   6.499   7.732
   948G11  C05V64724   8.150   6.664   7.864
   948G11  C06J64725   8.259   6.727   7.920
   948G11  H00K64726   8.358   6.686   7.906
   948G11  C05X64727   8.235   6.839   8.006
   948G11  C06I64728   8.339   6.917   8.065
   948G11  H00L64729   8.440   6.881   8.048
   948G11  C04Z64730   8.325   7.031   8.149
   948G11  C06H64731   8.439   7.094   8.210
   948G11  H00H64732   8.540   7.068   8.182
   948G11  C04Y64733   8.412   7.209   8.291
   948G11  C06G64734   8.524   7.271   8.362
   948G11  O00964735   8.639   7.232   8.338
   948G11  O00864736   8.507   7.380   8.449
   948G11  C04P64737   8.378   7.427   8.464
   948G11  C04J64738   8.348   7.534   8.554
   948G11  C04Q64739   8.440   7.615   8.620
   948G11  H00E64740   8.543   7.595   8.594
   948G11  C04M64741   8.404   7.714   8.718
   948G11  C04R64742   8.488   7.787   8.810
   948G11  H00F64743   8.595   7.773   8.806
   948G11  C04S64744   8.437   7.876   8.891
   948G11  H00G64745   8.508   7.939   8.942
   948G11  O00764746   8.301   7.913   8.894
   948G11  C03V64747   8.217   7.828   8.820
   948G11  C03U64748   8.078   7.852   8.835
   948G11  O00664749   8.042   7.940   8.930
   948G11  C03F64750   7.907   7.954   8.958
   948G11  C03E64751   7.807   7.883   8.891
   948G11  C03D64752   7.842   7.800   8.790
   948G11  C03C64753   7.746   7.735   8.714
   948G11  C03B64754   7.612   7.764   8.749
   948G11  C03A64755   7.506   7.710   8.674
   948G11  C03964756   7.532   7.615   8.574
   948G11  C03864757   7.399   7.580   8.538
   948G11  C03764758   7.305   7.656   8.612
   948G11  C03664759   7.170   7.643   8.603
   948G11  C02R64760   7.075   7.691   8.683
   948G11  C03564761   6.955   7.634   8.628
   948G11  C03R64762   6.979   7.553   8.516
   948G11  C03S64763   6.909   7.433   8.497
   948G11  C04964764   6.970   7.336   8.424
   948G11  C04864765   7.103   7.359   8.385
   948G11  C03P64766   7.192   7.456   8.446
   948G11  C04764767   7.149   7.264   8.292
   948G11  C04664768   7.274   7.258   8.237
   948G11  C04564769   7.389   7.332   8.260
   948G11  C03T64770   7.424   7.425   8.356
   948G11  C04464771   7.566   7.452   8.340
   948G11  C04364772   7.614   7.383   8.221
   948G11  C04264773   7.746   7.345   8.236
   948G11  C04164774   7.790   7.427   8.355
   948G11  C04064775   7.920   7.436   8.404
   948G11  C03Z64776   7.972   7.526   8.501
   948G11  C04H64777   8.110   7.502   8.503
   948G11  C04G64778   8.143   7.403   8.411
   948G11  C03N64779   7.921   7.622   8.593
   948G11  C03Y64780   8.022   7.689   8.669
   948G11  C03X64781   8.165   7.664   8.657
   948G11  C04F64782   8.035   7.359   8.349
   948G11  C04E64783   8.049   7.249   8.261
   948G11  C04O64784   8.180   7.191   8.249
   948G11  C04D64785   7.948   7.191   8.181
   948G11  C04V64786   7.976   7.080   8.100
   948G11  C04W64787   8.100   7.015   8.091
   948G11  C04C64788   7.814   7.234   8.160
   948G11  C04L64789   7.762   7.136   8.067
   948G11  C04U64790   7.628   7.125   8.040
   948G11  C05Q64791   7.562   7.035   7.957
   948G11  C05P64792   7.428   7.035   7.985
   948G11  C04T64793   7.397   7.133   8.070
   948G11  C04B64794   7.516   7.185   8.105
   948G11  C03M64795   7.679   7.503   8.424
   948G11  C04A64796   7.510   7.295   8.194
   948G11  C05H64797   7.275   7.161   8.137
   948G11  C05G64798   7.146   7.108   8.131
   948G11  C05F64799   7.107   6.999   8.053
   948G11  C05E64800   6.993   6.916   8.076
   948G11  C05L64801   6.873   6.913   8.164
   948G11  C05K64802   6.840   7.018   8.253
   948G11  C05J64803   6.929   7.127   8.292
   948G11  C06664804   6.720   6.998   8.324
   948G11  C06564805   6.633   6.887   8.302
   948G11  C06464806   6.671   6.787   8.214
   948G11  C06N64807   6.514   6.866   8.373
   948G11  C06964808   6.476   6.967   8.463
   948G11  C06P64809   6.365   6.948   8.551
   948G11  C06R64810   6.337   7.033   8.660
   948G11  C06B64811   6.421   7.147   8.680
   948G11  C06S64812   6.396   7.223   8.795
   948G11  C02G64813   6.474   7.334   8.821
   948G11  C02F64814   6.462   7.402   8.939
   948G11  C02764815   6.369   7.362   9.029
   948G11  C02664816   6.367   7.427   9.150
   948G11  C00E64817   6.273   7.388   9.248
   948G11  C00D64818   6.267   7.457   9.372
   948G11  C00C64819   6.180   7.411   9.466
   948G11  C00B64820   6.099   7.306   9.450
   948G11  C01564821   6.098   7.248   9.325
   948G11  C07F64822   6.014   7.137   9.307
   948G11  C07E64823   6.028   7.058   9.193
   948G11  C06W64824   6.114   7.104   9.092
   948G11  C06V64825   6.193   7.214   9.111
   948G11  C06X64826   6.126   7.034   8.972
   948G11  C07B64827   6.048   6.919   8.956
   948G11  C07C64828   5.970   6.872   9.055
   948G11  C0FU64829   5.895   6.759   9.040
   948G11  C0F764830   5.806   6.722   9.137
   948G11  C0F664831   5.729   6.605   9.117
   948G11  C0F864832   5.632   6.577   9.206
   948G11  C0F964833   5.575   6.452   9.203
   948G11  C0FA64834   5.474   6.423   9.292
   948G11  C0FZ64835   5.448   6.513   9.392
   948G11  C0G064836   5.336   6.485   9.477
   948G11  C0GD64837   5.263   6.369   9.475
   948G11  C0FC64838   5.295   6.276   9.377
   948G11  C0GH64839   5.234   6.153   9.377
   948G11  C0EY64840   5.288   6.054   9.303
   948G11  C0EX64841   5.238   5.921   9.306
   948G11  C0EW64842   5.297   5.823   9.229
   948G11  C0FR64843   5.239   5.695   9.226
   948G11  H01D64844   5.285   5.622   9.162
   948G11  C0FS64845   5.121   5.664   9.294
   948G11  H01C64846   5.064   5.572   9.294
   948G11  C0GJ64847   5.068   5.762   9.374
   948G11  H01N64848   4.980   5.744   9.434
   948G11  C0EV64849   5.403   5.853   9.147
   948G11  C0FT64850   5.466   5.756   9.065
   948G11  H01E64851   5.450   5.650   9.072
   948G11  C0EU64852   5.445   5.986   9.123
   948G11  C0ET64853   5.546   6.018   9.033
   948G11  C0EI64854   5.596   6.142   9.015
   948G11  C0F164855   5.550   6.236   9.108
   948G11  C0F064856   5.449   6.204   9.203
   948G11  C0EH64857   5.685   6.165   8.902
   948G11  C0EG64858   5.730   6.064   8.807
   948G11  C0EJ64859   5.735   6.301   8.900
   948G11  C0F364860   5.701   6.388   9.007
   948G11  C0EK64861   5.828   6.339   8.805
   948G11  C0EL64862   5.867   6.244   8.701
   948G11  C0EM64863   5.955   6.311   8.605
   948G11  C0EN64864   6.007   6.439   8.622
   948G11  C07I64865   6.092   6.475   8.518
   948G11  C07464866   6.159   6.599   8.523
   948G11  C07364867   6.248   6.616   8.423
   948G11  C07264868   6.318   6.737   8.433
   948G11  C07564869   6.123   6.680   8.625
   948G11  C07664870   6.030   6.643   8.724
   948G11  C07864871   6.003   6.724   8.826
   948G11  C07G64872   6.191   6.799   8.631
   948G11  C07064873   6.159   6.887   8.738
   948G11  C07Z64874   6.112   6.367   8.433
   948G11  C07764875   5.971   6.516   8.728
   948G11  C0EO64876   5.889   6.464   8.818
   948G11  C0F464877   5.850   6.556   8.920
   948G11  C0EQ64878   5.586   5.922   8.942
   948G11  C0FQ64879   5.122   5.891   9.383
   948G11  C0GI64880   5.079   5.996   9.460
   948G11  H01L64881   4.995   5.978   9.525
   948G11  C0EZ64882   5.391   6.083   9.213
   948G11  C0GG64883   5.134   6.125   9.466
   948G11  C0GF64884   5.084   6.219   9.554
   948G11  H01M64885   4.998   6.188   9.613
   948G11  C0GE64886   5.146   6.344   9.555
   948G11  H01K64887   5.104   6.411   9.629
   948G11  O00J64888   5.300   6.576   9.575
   948G11  C0GA64889   5.373   6.689   9.593
   948G11  C0G964890   5.345   6.769   9.698
   948G11  H01H64891   5.257   6.749   9.757
   948G11  C0G864892   5.423   6.878   9.730
   948G11  C0G764893   5.401   6.968   9.838
   948G11  H01I64894   5.329   6.930   9.909
   948G11  O00I64895   5.485   7.068   9.872
   948G11  C0G664896   5.580   7.097   9.776
   948G11  H01J64897   5.635   7.185   9.808
   948G11  C02D64898   5.611   7.018   9.666
   948G11  C02C64899   5.720   7.047   9.583
   948G11  C01764900   5.817   7.151   9.613
   948G11  C01664901   5.919   7.178   9.520
   948G11  O00164902   5.812   7.227   9.726
   948G11  C01864903   5.901   7.322   9.765
   948G11  C00964904   6.001   7.354   9.672
   948G11  C00864905   6.111   7.451   9.691
   948G11  C00764906   6.151   7.544   9.790
   948G11  C00664907   6.071   7.570   9.907
   948G11  C00564908   6.114   7.662  10.010
   948G11  C00464909   6.222   7.757  10.016
   948G11  C00364910   6.324   7.789   9.909
   948G11  C00264911   6.419   7.897   9.938
   948G11  C00P64912   6.516   7.935   9.841
   948G11  C00O64913   6.622   8.028   9.867
   948G11  C00N64914   6.714   8.071   9.770
   948G11  C01064915   6.825   8.154   9.804
   948G11  C01164916   6.919   8.192   9.704
   948G11  C01Q64917   7.026   8.277   9.738
   948G11  C01U64918   7.046   8.323   9.867
   948G11  C01264919   6.946   8.282   9.967
   948G11  H00064920   6.962   8.332  10.061
   948G11  C01V64921   7.157   8.403   9.897
   948G11  H00764922   7.193   8.433   9.994
   948G11  O00564923   7.238   8.445   9.803
   948G11  C01W64924   7.223   8.394   9.676
   948G11  C03164925   7.317   8.443   9.580
   948G11  C03264926   7.297   8.404   9.446
   948G11  H00A64927   7.381   8.428   9.382
   948G11  C03364928   7.190   8.322   9.405
   948G11  H00B64929   7.166   8.301   9.302
   948G11  C01O64930   7.105   8.266   9.505
   948G11  C01N64931   7.015   8.172   9.473
   948G11  C01M64932   7.024   8.090   9.349
   948G11  C01L64933   7.105   8.045   9.227
   948G11  C01K64934   7.018   7.964   9.147
   948G11  C01Y64935   7.045   7.891   9.032
   948G11  C02I64936   7.174   7.892   8.986
   948G11  C02N64937   7.200   7.815   8.867
   948G11  C02M64938   7.336   7.799   8.833
   948G11  C02L64939   7.437   7.866   8.899
   948G11  C02K64940   7.405   7.948   9.007
   948G11  C02U64941   7.514   8.009   9.076
   948G11  C02V64942   7.646   7.997   9.028
   948G11  C03H64943   7.753   8.071   9.092
   948G11  H00C64944   7.733   8.151   9.163
   948G11  C02W64945   7.490   8.069   9.197
   948G11  C02X64946   7.362   8.067   9.240
   948G11  C02Y64947   7.374   8.113   9.374
   948G11  H00864948   7.302   8.118   9.454
   948G11  C02Z64949   7.514   8.153   9.397
   948G11  O00464950   7.561   8.213   9.496
   948G11  O00364951   7.584   8.110   9.290
   948G11  C02J64952   7.274   7.964   9.059
   948G11  C01Z64953   6.941   7.815   8.986
   948G11  C02064954   6.822   7.796   9.064
   948G11  C01I64955   6.800   7.868   9.177
   948G11  C01H64956   6.704   7.847   9.270
   948G11  C00K64957   6.705   7.902   9.396
   948G11  C01S64958   6.798   7.997   9.431
   948G11  C01464959   6.809   8.055   9.551
   948G11  C00J64960   6.614   7.866   9.488
   948G11  C00I64961   6.524   7.768   9.455
   948G11  C00H64962   6.528   7.707   9.330
   948G11  C00G64963   6.442   7.601   9.302
   948G11  C00S64964   6.438   7.726   9.552
   948G11  C00T64965   6.360   7.623   9.516
   948G11  C00U64966   6.268   7.581   9.605
   948G11  C00R64967   6.427   7.781   9.680
   948G11  C00L64968   6.614   7.923   9.617
   948G11  C02864969   6.614   7.745   9.234
   948G11  C02364970   6.623   7.678   9.116
   948G11  C02464971   6.539   7.578   9.085
   948G11  C02164972   6.725   7.701   9.031
   948G11  C02264973   6.744   7.636   8.914
   948G11  C02H64974   6.651   7.538   8.882
   948G11  C03064975   6.664   7.468   8.768
   948G11  C03464976   6.765   7.498   8.679
   948G11  C02P64977   6.851   7.661   8.832
   948G11  C02B64978   6.957   7.742   8.872
   948G11  C01J64979   6.897   7.960   9.213
   948G11  C01X64980   7.241   8.032   9.181
   948G11  C01T64981   6.904   8.020   9.335
   948G11  H00964982   7.405   8.497   9.608
   948G11  C01P64983   7.115   8.306   9.638
   948G11  C01R64984   6.914   8.142   9.573
   948G11  C00Z64985   6.831   8.203   9.938
   948G11  O00064986   6.739   8.167  10.030
   948G11  C00M64987   6.711   8.018   9.645
   948G11  C00Y64988   6.636   8.080   9.993
   948G11  C01364989   6.537   8.039  10.092
   948G11  H00164990   6.544   8.075  10.194
   948G11  C00Q64991   6.520   7.878   9.709
   948G11  C00164992   6.434   7.950  10.069
   948G11  C00064993   6.345   7.910  10.170
   948G11  H00664994   6.349   7.936  10.275
   948G11  C00W64995   6.332   7.736   9.778
   948G11  C01G64996   6.238   7.826  10.137
   948G11  H00564997   6.171   7.803  10.219
   948G11  C01C64998   6.024   7.645  10.120
   948G11  H00264999   6.018   7.681  10.221
   948G11  C01B65000   5.934   7.539  10.078
   948G11  C01D65001   5.829   7.470  10.154
   948G11  H00365002   5.819   7.491  10.259
   948G11  C01E65003   5.755   7.376  10.092
   948G11  H00465004   5.683   7.322  10.151
   948G11  O00265005   5.773   7.341   9.959
   948G11  C01A65006   5.957   7.493   9.945
   948G11  C00V65007   6.249   7.631   9.733
   948G11  C01965008   5.883   7.384   9.889
   948G11  C02E65009   5.740   6.969   9.475
   948G11  C0FX65010   5.661   6.857   9.451
   948G11  C0FW65011   5.683   6.771   9.342
   948G11  C0GB65012   5.560   6.825   9.538
   948G11  C0G365013   5.841   6.999   9.385
   948G11  C07H65014   5.853   6.915   9.265
   948G11  C0GC65015   5.534   6.905   9.645
   948G11  C0G265016   5.479   6.719   9.507
   948G11  C0G165017   5.509   6.632   9.405
   948G11  C0FB65018   5.404   6.304   9.291
   948G11  C0F265019   5.611   6.356   9.110
   948G11  C0FY65020   5.605   6.667   9.314
   948G11  C0F565021   5.758   6.521   9.011
   948G11  C0FV65022   5.776   6.802   9.248
   948G11  C07965023   5.913   6.681   8.926
   948G11  C07A65024   6.068   6.843   8.840
   948G11  C06Y65025   6.216   7.075   8.870
   948G11  C07D65026   5.949   6.947   9.173
   948G11  C01F65027   5.926   7.105   9.402
   948G11  C00A65028   6.007   7.272   9.549
   948G11  C00X65029   6.184   7.478   9.581
   948G11  C00F65030   6.357   7.557   9.396
   948G11  C02965031   6.188   7.280   9.231
   948G11  C02565032   6.449   7.538   9.177
   948G11  C06U65033   6.284   7.255   9.009
   948G11  C02A65034   6.550   7.506   8.968
   948G11  C05Y65035   6.584   7.365   8.738
   948G11  C05Z65036   6.607   7.284   8.626
   948G11  C06065037   6.719   7.302   8.549
   948G11  C06265038   6.762   7.208   8.447
   948G11  C06T65039   6.300   7.186   8.892
   948G11  C06A65040   6.527   7.173   8.594
   948G11  C06Z65041   6.234   7.000   8.754
   948G11  C06Q65042   6.289   6.832   8.537
   948G11  C06865043   6.560   7.076   8.488
   948G11  C06765044   6.678   7.099   8.414
   948G11  C06365045   6.791   6.799   8.140
   948G11  C06C65046   6.824   6.692   8.055
   948G11  C06D65047   6.945   6.687   7.996
   948G11  C06E65048   7.001   6.586   7.921
   948G11  C07Q65049   6.923   6.473   7.903
   948G11  C07P65050   6.794   6.473   7.965
   948G11  C07T65051   6.724   6.355   7.953
   948G11  C07U65052   6.602   6.340   8.018
   948G11  C07V65053   6.526   6.226   8.002
   948G11  C08465054   6.572   6.130   7.912
   948G11  C08C65055   6.692   6.143   7.848
   948G11  C08B65056   6.735   6.048   7.766
   948G11  C08A65057   6.864   6.058   7.709
   948G11  C08965058   6.951   6.158   7.728
   948G11  C08865059   7.077   6.162   7.664
   948G11  C08765060   7.155   6.272   7.682
   948G11  C08665061   7.109   6.370   7.773
   948G11  C08X65062   7.117   6.060   7.573
   948G11  C08T65063   7.033   5.941   7.568
   948G11  C08D65064   6.902   6.258   7.809
   948G11  C08U65065   6.909   5.949   7.637
   948G11  C08V65066   6.833   5.837   7.613
   948G11  C0CY65067   6.715   5.823   7.680
   948G11  C0CX65068   6.655   5.700   7.666
   948G11  C0CW65069   6.544   5.682   7.743
   948G11  C0CV65070   6.489   5.784   7.822
   948G11  C0D465071   6.551   5.909   7.821
   948G11  C0CU65072   6.381   5.758   7.904
   948G11  C0CT65073   6.339   5.624   7.930
   948G11  C0CS65074   6.402   5.526   7.856
   948G11  C0D665075   6.341   5.866   7.977
   948G11  C0EC65076   6.398   5.991   7.978
   948G11  C07X65077   6.346   6.091   8.060
   948G11  C0DL65078   6.240   5.837   8.063
   948G11  C0DK65079   6.192   5.932   8.145
   948G11  C0DN65080   6.103   5.872   8.227
   948G11  C0D865081   6.189   5.707   8.098
   948G11  C08W65082   6.903   5.745   7.536
   948G11  C0CQ65083   6.832   5.617   7.508
   948G11  C09365084   6.667   5.927   7.754
   948G11  C09265085   6.507   6.011   7.901
   948G11  C08565086   6.773   6.259   7.866
   948G11  C07S65087   6.979   6.369   7.827
   948G11  C06F65088   7.133   6.589   7.863
   948G11  C07O65089   6.746   6.575   8.043
   948G11  C07N65090   6.630   6.561   8.115
   948G11  C05D65091   7.016   6.806   7.993
   948G11  C05C65092   7.140   6.806   7.932
   948G11  C05N65093   7.197   6.919   7.974
   948G11  C05M65094   7.061   7.164   8.231
   948G11  C05I65095   6.889   7.221   8.388
   948G11  C06165096   6.798   7.415   8.573
   948G11  C02Q65097   6.848   7.602   8.712
   948G11  C02O65098   7.081   7.750   8.808
   948G11  C03Q65099   7.118   7.555   8.506
   948G11  C03O65100   7.338   7.476   8.450
   948G11  C03L65101   7.663   7.582   8.535
   948G11  C02S65102   7.376   7.722   8.713
   948G11  C02T65103   7.575   7.846   8.857
   948G11  C03K65104   7.777   7.646   8.611
   948G11  C03I65105   7.676   7.909   8.927
   948G11  C03G65106   7.880   8.047   9.060
   948G11  H00D65107   7.957   8.100   9.114
   948G11  C03J65108   7.979   7.781   8.763
   948G11  C03W65109   8.264   7.733   8.729
   948G11  C04I65110   8.211   7.571   8.575
   948G11  C04K65111   8.275   7.368   8.392
   948G11  C04N65112   8.290   7.256   8.309
   948G11  C04X65113   8.201   7.079   8.167
   948G11  C05065114   8.108   6.899   8.009
   948G11  C05W65115   7.862   7.038   8.026
   948G11  C05S65116   7.782   6.639   7.767
   948G11  C05R65117   7.620   6.928   7.892
   948G11  C05O65118   7.337   6.934   7.943
   948G11  C05B65119   7.208   6.700   7.874
   948G11  C05A65120   7.538   6.621   7.758
   948G11  C07R65121   7.190   6.480   7.797
   948G11  C08N65122   7.286   6.275   7.629
   948G11  C08M65123   7.328   6.175   7.533
   948G11  C08L65124   7.460   6.174   7.483
   948G11  C09165125   7.657   6.549   7.743
   948G11  C09K65126   7.824   6.234   7.698
   948G11  H00M65127   7.854   6.248   7.801
   948G11  C08K65128   7.551   6.265   7.545
   948G11  C09J65129   7.860   6.139   7.600
   948G11  C09I65130   7.895   6.004   7.592
   948G11  C09L65131   7.987   5.938   7.671
   948G11  H00N65132   8.040   5.979   7.755
   948G11  C09Q65133   8.020   5.812   7.629
   948G11  H00O65134   8.089   5.751   7.686
   948G11  O00B65135   7.968   5.747   7.516
   948G11  C09G65136   7.865   5.805   7.448
   948G11  C09F65137   7.793   5.724   7.356
   948G11  O00A65138   7.852   5.600   7.340
   948G11  C09P65139   7.795   5.513   7.252
   948G11  H00P65140   7.847   5.449   7.182
   948G11  C09O65141   7.652   5.508   7.251
   948G11  C09D65142   7.585   5.637   7.256
   948G11  C09C65143   7.442   5.661   7.232
   948G11  C09N65144   7.326   5.570   7.234
   948G11  C09T65145   7.327   5.439   7.273
   948G11  C09S65146   7.442   5.358   7.260
   948G11  C0CP65147   7.390   5.230   7.278
   948G11  C0CN65148   7.254   5.227   7.307
   948G11  C0CO65149   7.193   5.106   7.349
   948G11  H01465150   7.093   5.092   7.385
   948G11  C0CZ65151   7.271   4.987   7.322
   948G11  H01565152   7.242   4.886   7.346
   948G11  C0D065153   7.409   4.991   7.286
   948G11  C0G565154   7.501   4.873   7.277
   948G11  H01F65155   7.458   4.774   7.275
   948G11  C0G465156   7.633   4.899   7.254
   948G11  H01G65157   7.706   4.820   7.250
   948G11  O00H65158   7.692   5.020   7.242
   948G11  C0D265159   7.612   5.127   7.249
   948G11  C09V65160   7.664   5.257   7.238
   948G11  H00Q65161   7.772   5.255   7.232
   948G11  C0D165162   7.475   5.114   7.274
   948G11  C09R65163   7.581   5.376   7.240
   948G11  C09H65164   7.836   5.944   7.474
   948G11  C09E65165   7.660   5.749   7.303
   948G11  C09B65166   7.385   5.785   7.227
   948G11  C08Z65167   7.499   6.069   7.402
   948G11  C08O65168   7.239   6.071   7.500
   948G11  C09A65169   7.248   5.796   7.234
   948G11  C08S65170   7.023   5.815   7.501
   948G11  C09965171   7.204   5.660   7.240
   948G11  C09U65172   7.204   5.362   7.292
   948G11  C0BO65173   6.783   5.173   7.330
   948G11  C0CL65174   6.888   5.516   7.428
   948G11  C0D365175   6.716   5.600   7.585
   948G11  C0D565176   6.490   5.554   7.753
   948G11  C0BR65177   6.651   5.246   7.516
   948G11  C0BQ65178   6.690   5.150   7.429
   948G11  C0BL65179   6.749   4.955   7.230
   948G11  C0AF65180   6.659   4.696   7.260
   948G11  C0BH65181   6.496   4.860   7.544
   948G11  C0BG65182   6.418   4.824   7.654
   948G11  C0BD65183   6.413   4.598   7.585
   948G11  C0AG65184   6.615   4.570   7.278
   948G11  C0AI65185   6.663   4.337   7.241
   948G11  C0AV65186   6.682   4.081   7.333
   948G11  C0BB65187   6.399   4.234   7.529
   948G11  O00C65188   6.602   3.947   7.533
   948G11  C0BC65189   6.336   4.179   7.644
   948G11  C0B965190   6.378   4.460   7.604
   948G11  O00E65191   6.244   4.482   7.943
   948G11  C0CA65192   6.213   4.571   8.036
   948G11  O00F65193   6.155   4.521   8.134
   948G11  C0BF65194   6.382   4.692   7.677
   948G11  C0C565195   6.232   4.714   8.007
   948G11  C0C465196   6.197   4.812   8.106
   948G11  H01165197   6.151   4.782   8.198
   948G11  C0C865198   6.389   4.926   7.745
   948G11  C0C265199   6.215   4.947   8.067
   948G11  C0C365200   6.192   5.059   8.153
   948G11  C0DY65201   6.160   5.057   8.292
   948G11  H01665202   6.143   4.972   8.356
   948G11  C0DX65203   6.131   5.189   8.328
   948G11  C0DW65204   6.120   5.217   8.463
   948G11  C0BY65205   6.377   5.160   7.813
   948G11  C0DB65206   6.204   5.191   8.121
   948G11  C0CC65207   6.368   5.395   7.876
   948G11  C0D765208   6.250   5.594   8.031
   948G11  C0DZ65209   6.159   5.278   8.218
   948G11  C0DM65210   6.091   5.732   8.198
   948G11  C0DQ65211   6.028   5.456   8.420
   948G11  C0DV65212   6.063   5.343   8.501
   948G11  C0E065213   6.130   5.134   8.583
   948G11  C0FO65214   5.867   5.151   8.829
   948G11  C0E365215   6.065   5.001   8.598
   948G11  H01765216   6.070   4.920   8.526
   948G11  C0GV65217   5.805   5.027   8.841
   948G11  C0ES65218   5.784   5.270   8.824
   948G11  C0GQ65219   5.459   5.109   8.903
   948G11  C0FJ65220   5.330   5.453   8.893
   948G11  C0ED65221   5.600   5.493   8.806
   948G11  C0ER65222   5.535   5.796   8.951
   948G11  C0EP65223   5.665   5.936   8.832
   948G11  C0E665224   5.799   5.614   8.687
   948G11  C0DE65225   5.905   5.805   8.458
   948G11  C0EA65226   5.818   6.102   8.705
   948G11  C0DF65227   5.924   5.930   8.386
   948G11  C08065228   6.025   6.262   8.491
   948G11  C0DO65229   6.038   5.958   8.310
   948G11  C0DJ65230   6.232   6.069   8.138
   948G11  C07K65231   6.217   6.390   8.335
   948G11  C07W65232   6.410   6.209   8.077
   948G11  C08365233   6.554   6.443   8.103
   948G11  C07J65234   6.281   6.515   8.336
   948G11  C06O65235   6.434   6.755   8.357
   948G11  C06M65236   6.593   6.667   8.198
   958G11  C07165237   1.925   7.924  13.440
   958G11  C07L65238   2.009   7.893  13.556
   958G11  C07M65239   2.145   7.915  13.550
   958G11  C07Y65240   2.227   7.882  13.663
   958G11  C08165241   2.170   7.842  13.787
   958G11  C08265242   2.263   7.810  13.893
   958G11  C0DI65243   2.238   7.753  14.025
   958G11  C0DH65244   2.121   7.693  14.088
   958G11  C0DG65245   2.151   7.665  14.226
   958G11  C0E965246   2.099   7.565  14.313
   958G11  C0E865247   2.224   7.547  14.407
   958G11  C0E765248   2.225   7.487  14.546
   958G11  C0EB65249   2.108   7.406  14.584
   958G11  C0EF65250   2.089   7.330  14.711
   958G11  C0EE65251   2.138   7.348  14.840
   958G11  C0FD65252   2.042   7.327  14.944
   958G11  C0FE65253   1.899   7.338  14.941
   958G11  H01B65254   1.843   7.374  14.856
   958G11  C0FF65255   1.824   7.329  15.059
   958G11  H01A65256   1.720   7.360  15.060
   958G11  C0FG65257   1.884   7.277  15.173
   958G11  H01865258   1.819   7.273  15.259
   958G11  C0FH65259   2.024   7.250  15.182
   958G11  C0FI65260   2.093   7.195  15.294
   958G11  H01965261   2.036   7.177  15.384
   958G11  O00K65262   2.223   7.170  15.297
   958G11  C0FL65263   2.303   7.221  15.194
   958G11  C0FK65264   2.241   7.283  15.077
   958G11  C0FM65265   2.322   7.342  14.979
   958G11  C0FN65266   2.456   7.356  15.015
   958G11  C0FP65267   2.518   7.284  15.119
   958G11  C0GO65268   2.651   7.285  15.145
   958G11  C0GN65269   2.720   7.202  15.228
   958G11  C0GR65270   2.635   7.120  15.315
   958G11  C0GS65271   2.695   7.037  15.408
   958G11  H01Q65272   2.636   6.976  15.475
   958G11  C0GT65273   2.829   7.018  15.404
   958G11  H01O65274   2.887   6.950  15.464
   958G11  C0GU65275   2.908   7.100  15.319
   958G11  H01P65276   3.011   7.066  15.322
   958G11  O00L65277   2.499   7.134  15.313
   958G11  C0GM65278   2.859   7.197  15.231
   958G11  C0GL65279   2.932   7.291  15.138
   958G11  H01R65280   3.040   7.286  15.135
   958G11  C0GK65281   2.859   7.394  15.075
   958G11  C0GP65282   2.884   7.505  14.980
   958G11  C0E265283   2.760   7.566  14.962
   958G11  C0E165284   2.769   7.629  14.836
   958G11  C0DU65285   2.683   7.598  14.725
   958G11  C0DT65286   2.554   7.555  14.718
   958G11  C0E465287   2.488   7.485  14.815
   958G11  C0E565288   2.361   7.443  14.772
   958G11  C0DS65289   2.477   7.543  14.606
   958G11  C0DR65290   2.545   7.582  14.488
   958G11  C0DD65291   2.495   7.591  14.355
   958G11  C0DC65292   2.605   7.663  14.284
   958G11  C0DP65293   2.732   7.667  14.357
   958G11  C0DA65294   2.869   7.701  14.311
   958G11  C0D965295   2.917   7.753  14.181
   958G11  C0CR65296   3.057   7.772  14.160
   958G11  C0C065297   3.147   7.779  14.262
   958G11  C0BZ65298   3.285   7.797  14.247
   958G11  C0C165299   3.373   7.810  14.353
   958G11  C0C765300   3.510   7.835  14.341
   958G11  C0C665301   3.599   7.836  14.449
   958G11  C0C965302   3.738   7.855  14.428
   958G11  C0B865303   3.825   7.853  14.541
   958G11  C0B765304   3.964   7.873  14.525
   958G11  C0B665305   4.085   7.850  14.605
   958G11  C0B565306   4.111   7.776  14.725
   958G11  H00Z65307   4.038   7.724  14.785
   958G11  C0B465308   4.256   7.771  14.737
   958G11  H01065309   4.316   7.710  14.803
   958G11  C0B365310   4.315   7.851  14.631
   958G11  C0AP65311   4.432   7.889  14.546
   958G11  C0AQ65312   4.368   7.952  14.439
   958G11  C0AR65313   4.414   7.926  14.312
   958G11  C0AS65314   4.319   7.951  14.218
   958G11  C0AT65315   4.183   7.954  14.238
   958G11  C0BA65316   4.134   7.947  14.362
   958G11  C0AU65317   4.097   7.936  14.133
   958G11  C0BE65318   3.963   7.921  14.152
   958G11  C0BI65319   3.880   7.902  14.040
   958G11  C0BJ65320   3.932   7.889  13.907
   958G11  C0BK65321   3.850   7.872  13.799
   958G11  C0BW65322   3.717   7.855  13.821
   958G11  C0BV65323   3.665   7.857  13.951
   958G11  C0BU65324   3.528   7.839  13.970
   958G11  C0BX65325   3.476   7.831  14.101
   958G11  C0BT65326   3.442   7.831  13.859
   958G11  C0CD65327   3.305   7.825  13.879
   958G11  C0CB65328   3.254   7.813  14.008
   958G11  C0CE65329   3.220   7.844  13.773
   958G11  C0CK65330   3.274   7.859  13.639
   958G11  C0BS65331   3.410   7.849  13.620
   958G11  C0CJ65332   3.461   7.864  13.493
   958G11  C0BP65333   3.600   7.860  13.477
   958G11  C0CI65334   3.649   7.851  13.346
   958G11  C0CH65335   3.789   7.854  13.334
   958G11  H01265336   3.835   7.871  13.238
   958G11  C0BN65337   3.879   7.839  13.448
   958G11  C0CG65338   4.016   7.825  13.428
   958G11  C0CF65339   4.065   7.781  13.300
   958G11  H01365340   4.002   7.754  13.216
   958G11  O00G65341   4.196   7.759  13.289
   958G11  C0AA65342   4.280   7.789  13.396
   958G11  C0A965343   4.416   7.780  13.363
   958G11  H00U65344   4.446   7.748  13.264
   958G11  C0A865345   4.502   7.811  13.464
   958G11  H00V65346   4.599   7.811  13.417
   958G11  C0A765347   4.467   7.829  13.603
   958G11  C0A665348   4.323   7.846  13.631
   958G11  C0A565349   4.270   7.888  13.751
   958G11  C0A465350   4.348   7.894  13.865
   958G11  C0A365351   4.484   7.877  13.910
   958G11  C0A265352   4.592   7.849  13.828
   958G11  C0A165353   4.729   7.851  13.872
   958G11  C0A065354   4.802   7.851  14.001
   958G11  C09Z65355   4.942   7.839  13.993
   958G11  C09Y65356   5.020   7.818  14.110
   958G11  H00Y65357   5.126   7.802  14.099
   958G11  C09X65358   4.955   7.809  14.235
   958G11  C09W65359   5.035   7.777  14.347
   958G11  H00R65360   5.139   7.751  14.331
   958G11  C0AX65361   4.985   7.779  14.475
   958G11  H00S65362   5.051   7.760  14.559
   958G11  C0AW65363   4.847   7.805  14.492
   958G11  H00T65364   4.802   7.800  14.590
   958G11  C0AN65365   4.759   7.834  14.383
   958G11  C0AO65366   4.627   7.857  14.401
   958G11  C0AM65367   4.818   7.837  14.253
   958G11  C0B265368   5.019   7.846  13.871
   958G11  O00D65369   5.140   7.831  13.859
   958G11  C0B165370   4.947   7.850  13.750
   958G11  H00W65371   4.995   7.838  13.654
   958G11  C0AL65372   4.737   7.851  14.132
   958G11  C0AK65373   4.598   7.877  14.157
   958G11  C0B065374   4.809   7.844  13.754
   958G11  C0AZ65375   4.722   7.819  13.642
   958G11  H00X65376   4.755   7.811  13.540
   958G11  C0AJ65377   4.494   7.893  14.051
   958G11  C0AH65378   4.282   7.927  13.985
   958G11  C0AE65379   4.129   7.891  13.767
   958G11  C0AD65380   4.046   7.871  13.659
   958G11  C0AY65381   4.584   7.835  13.685
   958G11  C0AB65382   4.238   7.823  13.527
   958G11  C0AC65383   4.101   7.844  13.537
   958G11  C0BM65384   3.822   7.851  13.573
   958G11  C0CM65385   3.560   7.848  13.238
   958G11  C09M65386   3.436   7.913  13.250
   958G11  C09865387   3.390   7.994  13.143
   958G11  C08R65388   3.262   8.050  13.106
   958G11  C08Q65389   3.257   8.124  12.984
   958G11  C08P65390   3.151   8.155  12.885
   958G11  C08Y65391   3.200   8.170  12.753
   958G11  C09765392   3.328   8.123  12.716
   958G11  C09665393   3.324   8.049  12.602
   958G11  C09065394   3.201   8.090  12.541
   958G11  C09565395   3.147   8.045  12.414
   958G11  C09465396   3.040   8.108  12.345
   958G11  C08J65397   2.929   8.166  12.400
   958G11  C08I65398   2.813   8.127  12.326
   958G11  C08H65399   2.694   8.148  12.407
   958G11  C08G65400   2.744   8.160  12.548
   958G11  C08F65401   2.687   8.167  12.682
   958G11  C08E65402   2.549   8.184  12.695
   958G11  C05965403   2.458   8.235  12.597
   958G11  C05865404   2.317   8.260  12.629
   958G11  C05765405   2.214   8.308  12.544
   958G11  C05665406   2.259   8.333  12.410
   958G11  C05565407   2.390   8.340  12.380
   958G11  C05465408   2.410   8.322  12.248
   958G11  C05365409   2.277   8.301  12.181
   958G11  C05265410   2.245   8.244  12.055
   958G11  C05165411   2.349   8.210  11.959
   958G11  C05U65412   2.496   8.209  11.982
   958G11  C05T65413   2.575   8.231  12.097
   958G11  C06K65414   2.708   8.259  12.050
   958G11  H00J65415   2.792   8.278  12.115
   958G11  C06L65416   2.718   8.234  11.911
   958G11  H00I65417   2.803   8.248  11.846
   958G11  C05V65418   2.583   8.199  11.874
   958G11  C06J65419   2.547   8.168  11.745
   958G11  H00K65420   2.614   8.161  11.661
   958G11  C05X65421   2.409   8.129  11.724
   958G11  C06I65422   2.367   8.065  11.609
   958G11  H00L65423   2.440   8.052  11.530
   958G11  C04Z65424   2.238   8.034  11.582
   958G11  C06H65425   2.208   7.962  11.463
   958G11  H00H65426   2.280   7.949  11.384
   958G11  C04Y65427   2.074   7.913  11.450
   958G11  C06G65428   2.038   7.834  11.330
   958G11  O00965429   2.116   7.821  11.235
   958G11  O00865430   1.916   7.787  11.320
   958G11  C04P65431   1.823   7.803  11.419
   958G11  C04J65432   1.694   7.736  11.422
   958G11  C04Q65433   1.638   7.656  11.323
   958G11  H00E65434   1.691   7.650  11.229
   958G11  C04M65435   1.521   7.587  11.332
   958G11  C04R65436   1.463   7.506  11.231
   958G11  H00F65437   1.517   7.489  11.139
   958G11  C04S65438   1.350   7.445  11.255
   958G11  H00G65439   1.303   7.377  11.185
   958G11  O00765440   1.277   7.451  11.372
   958G11  C03V65441   1.333   7.523  11.470
   958G11  C03U65442   1.267   7.534  11.593
   958G11  O00665443   1.168   7.445  11.610
   958G11  C03F65444   1.126   7.425  11.736
   958G11  C03E65445   1.147   7.521  11.837
   958G11  C03D65446   1.244   7.616  11.817
   958G11  C03C65447   1.286   7.692  11.926
   958G11  C03B65448   1.200   7.690  12.038
   958G11  C03A65449   1.220   7.785  12.146
   958G11  C03965450   1.338   7.870  12.144
   958G11  C03865451   1.338   7.927  12.279
   958G11  C03765452   1.214   7.873  12.335
   958G11  C03665453   1.168   7.913  12.454
   958G11  C02R65454   1.062   7.866  12.530
   958G11  C03565455   1.088   7.919  12.660
   958G11  C03R65456   1.205   7.994  12.662
   958G11  C03S65457   1.294   7.984  12.772
   958G11  C04965458   1.427   8.023  12.752
   958G11  C04865459   1.460   8.054  12.616
   958G11  C03P65460   1.385   8.023  12.498
   958G11  C04765461   1.591   8.112  12.610
   958G11  C04665462   1.653   8.164  12.497
   958G11  C04565463   1.620   8.153  12.358
   958G11  C03T65464   1.530   8.063  12.297
   958G11  C04465465   1.565   8.051  12.156
   958G11  C04365466   1.669   8.146  12.134
   958G11  C04265467   1.738   8.109  12.020
   958G11  C04165468   1.651   8.001  11.962
   958G11  C04065469   1.673   7.945  11.834
   958G11  C03Z65470   1.589   7.851  11.771
   958G11  C04H65471   1.652   7.834  11.648
   958G11  C04G65472   1.769   7.910  11.631
   958G11  C03N65473   1.468   7.774  11.792
   958G11  C03Y65474   1.429   7.690  11.683
   958G11  C03X65475   1.496   7.686  11.558
   958G11  C04F65476   1.787   7.978  11.749
   958G11  C04E65477   1.908   8.053  11.758
   958G11  C04O65478   2.007   8.025  11.657
   958G11  C04D65479   1.948   8.125  11.873
   958G11  C04V65480   2.085   8.162  11.890
   958G11  C04W65481   2.182   8.137  11.789
   958G11  C04C65482   1.873   8.157  11.992
   958G11  C04L65483   1.974   8.220  12.080
   958G11  C04U65484   1.949   8.275  12.215
   958G11  C05Q65485   2.053   8.299  12.313
   958G11  C05P65486   1.999   8.301  12.444
   958G11  C04T65487   1.868   8.260  12.436
   958G11  C04B65488   1.835   8.246  12.297
   958G11  C03M65489   1.537   7.962  12.043
   958G11  C04A65490   1.716   8.187  12.262
   958G11  C05H65491   1.777   8.219  12.540
   958G11  C05G65492   1.793   8.199  12.688
   958G11  C05F65493   1.913   8.217  12.760
   958G11  C05E65494   1.949   8.161  12.887
   958G11  C05L65495   1.876   8.091  12.992
   958G11  C05K65496   1.738   8.059  12.981
   958G11  C05J65497   1.647   8.075  12.864
   958G11  C06665498   1.682   7.994  13.098
   958G11  C06565499   1.763   7.972  13.213
   958G11  C06465500   1.902   7.998  13.211
   958G11  C06N65501   1.703   7.917  13.324
   958G11  C06965502   1.571   7.873  13.328
   958G11  C06P65503   1.520   7.805  13.444
   958G11  C06R65504   1.390   7.767  13.444
   958G11  C06B65505   1.312   7.776  13.329
   958G11  C06S65506   1.182   7.724  13.332
   958G11  C02G65507   1.104   7.742  13.223
   958G11  C02F65508   0.978   7.683  13.224
   958G11  C02765509   0.923   7.627  13.338
   958G11  C02665510   0.799   7.570  13.335
   958G11  C00E65511   0.745   7.516  13.448
   958G11  C00D65512   0.622   7.455  13.437
   958G11  C00C65513   0.575   7.400  13.554
   958G11  C00B65514   0.645   7.389  13.673
   958G11  C01565515   0.771   7.446  13.681
   958G11  C07F65516   0.847   7.430  13.791
   958G11  C07E65517   0.979   7.474  13.795
   958G11  C06W65518   1.026   7.542  13.677
   958G11  C06V65519   0.946   7.554  13.565
   958G11  C06X65520   1.155   7.594  13.678
   958G11  C07B65521   1.242   7.573  13.786
   958G11  C07C65522   1.196   7.499  13.897
   958G11  C0FU65523   1.284   7.466  14.002
   958G11  C0F765524   1.238   7.390  14.110
   958G11  C0F665525   1.326   7.353  14.211
   958G11  C0F865526   1.286   7.260  14.303
   958G11  C0F965527   1.383   7.208  14.385
   958G11  C0FA65528   1.351   7.099  14.468
   958G11  C0FZ65529   1.219   7.062  14.481
   958G11  C0G065530   1.180   6.967  14.569
   958G11  C0GD65531   1.278   6.881  14.630
   958G11  C0FC65532   1.413   6.924  14.619
   958G11  C0GH65533   1.514   6.853  14.689
   958G11  C0EY65534   1.639   6.896  14.686
   958G11  C0EX65535   1.736   6.830  14.757
   958G11  C0EW65536   1.863   6.888  14.764
   958G11  C0FR65537   1.975   6.818  14.821
   958G11  H01D65538   2.076   6.852  14.836
   958G11  C0FS65539   1.958   6.685  14.872
   958G11  H01C65540   2.045   6.628  14.902
   958G11  C0GJ65541   1.827   6.631  14.868
   958G11  H01N65542   1.811   6.533  14.910
   958G11  C0EV65543   1.882   7.013  14.714
   958G11  C0FT65544   1.984   7.101  14.766
   958G11  H01E65545   2.048   7.081  14.851
   958G11  C0EU65546   1.799   7.058  14.614
   958G11  C0ET65547   1.824   7.172  14.540
   958G11  C0EI65548   1.738   7.244  14.463
   958G11  C0F165549   1.611   7.192  14.460
   958G11  C0F065550   1.575   7.083  14.540
   958G11  C0EH65551   1.784   7.355  14.391
   958G11  C0EG65552   1.919   7.410  14.402
   958G11  C0EJ65553   1.690   7.409  14.301
   958G11  C0F365554   1.558   7.350  14.298
   958G11  C0EK65555   1.728   7.499  14.199
   958G11  C0EL65556   1.862   7.551  14.204
   958G11  C0EM65557   1.881   7.640  14.090
   958G11  C0EN65558   1.783   7.665  13.995
   958G11  C07I65559   1.833   7.724  13.886
   958G11  C07465560   1.755   7.758  13.773
   958G11  C07365561   1.817   7.818  13.664
   958G11  C07265562   1.734   7.843  13.556
   958G11  C07565563   1.631   7.708  13.778
   958G11  C07665564   1.579   7.643  13.893
   958G11  C07865565   1.448   7.601  13.896
   958G11  C07G65566   1.549   7.730  13.670
   958G11  C07065567   1.419   7.689  13.677
   958G11  C07Z65568   1.967   7.759  13.904
   958G11  C07765569   1.654   7.617  14.003
   958G11  C0EO65570   1.628   7.532  14.104
   958G11  C0F465571   1.494   7.492  14.114
   958G11  C0EQ65572   1.936   7.245  14.583
   958G11  C0FQ65573   1.711   6.701  14.816
   958G11  C0GI65574   1.578   6.659  14.811
   958G11  H01L65575   1.550   6.562  14.851
   958G11  C0EZ65576   1.671   7.010  14.609
   958G11  C0GG65577   1.476   6.733  14.754
   958G11  C0GF65578   1.349   6.680  14.748
   958G11  H01M65579   1.324   6.588  14.798
   958G11  C0GE65580   1.253   6.750  14.678
   958G11  H01K65581   1.157   6.703  14.678
   958G11  O00J65582   1.050   6.924  14.585
   958G11  C0GA65583   0.958   6.979  14.501
   958G11  C0G965584   0.822   6.945  14.517
   958G11  H01H65585   0.800   6.873  14.594
   958G11  C0G865586   0.724   6.985  14.421
   958G11  C0G765587   0.589   6.945  14.425
   958G11  H01I65588   0.562   6.875  14.502
   958G11  O00I65589   0.493   6.990  14.341
   958G11  C0G665590   0.537   7.067  14.237
   958G11  H01J65591   0.452   7.098  14.178
   958G11  C02D65592   0.673   7.105  14.218
   958G11  C02C65593   0.716   7.185  14.107
   958G11  C01765594   0.633   7.208  13.993
   958G11  C01665595   0.680   7.292  13.888
   958G11  O00165596   0.508   7.159  13.985
   958G11  C01865597   0.437   7.151  13.874
   958G11  C00965598   0.470   7.236  13.766
   958G11  C00865599   0.407   7.243  13.636
   958G11  C00765600   0.293   7.175  13.569
   958G11  C00665601   0.238   7.054  13.623
   958G11  C00565602   0.154   6.962  13.549
   958G11  C00465603   0.128   6.958  13.408
   958G11  C00365604   0.176   7.032  13.293
   958G11  C00265605   0.148   6.981  13.166
   958G11  C00P65606   0.207   7.038  13.052
   958G11  C00O65607   0.191   6.981  12.922
   958G11  C00N65608   0.255   7.033  12.813
   958G11  C01065609   0.239   6.976  12.686
   958G11  C01165610   0.304   7.024  12.569
   958G11  C01Q65611   0.293   6.952  12.445
   958G11  C01U65612   0.215   6.838  12.436
   958G11  C01265613   0.156   6.787  12.557
   958G11  H00065614   0.089   6.703  12.553
   958G11  C01V65615   0.208   6.775  12.307
   958G11  H00765616   0.156   6.681  12.295
   958G11  O00565617   0.273   6.815  12.199
   958G11  C01W65618   0.352   6.931  12.216
   958G11  C03165619   0.416   6.987  12.100
   958G11  C03265620   0.467   7.116  12.106
   958G11  H00A65621   0.497   7.146  12.007
   958G11  C03365622   0.486   7.180  12.228
   958G11  H00B65623   0.529   7.279  12.222
   958G11  C01O65624   0.439   7.116  12.344
   958G11  C01N65625   0.458   7.182  12.469
   958G11  C01M65626   0.538   7.302  12.482
   958G11  C01L65627   0.648   7.381  12.421
   958G11  C01K65628   0.666   7.493  12.506
   958G11  C01Y65629   0.768   7.588  12.504
   958G11  C02I65630   0.855   7.584  12.402
   958G11  C02N65631   0.958   7.681  12.395
   958G11  C02M65632   1.040   7.685  12.280
   958G11  C02L65633   1.018   7.597  12.178
   958G11  C02K65634   0.937   7.484  12.202
   958G11  C02U65635   0.940   7.375  12.111
   958G11  C02V65636   1.007   7.391  11.991
   958G11  C03H65637   0.998   7.291  11.887
   958G11  H00C65638   0.937   7.202  11.893
   958G11  C02W65639   0.888   7.254  12.144
   958G11  C02X65640   0.807   7.256  12.256
   958G11  C02Y65641   0.777   7.118  12.269
   958G11  H00865642   0.706   7.066  12.330
   958G11  C02Z65643   0.860   7.040  12.174
   958G11  O00465644   0.862   6.921  12.163
   958G11  O00365645   0.931   7.129  12.105
   958G11  C02J65646   0.853   7.477  12.313
   958G11  C01Z65647   0.790   7.658  12.623
   958G11  C02065648   0.722   7.627  12.741
   958G11  C01I65649   0.614   7.546  12.738
   958G11  C01H65650   0.558   7.491  12.851
   958G11  C00K65651   0.473   7.383  12.839
   958G11  C01S65652   0.460   7.314  12.721
   958G11  C01465653   0.391   7.198  12.708
   958G11  C00J65654   0.412   7.331  12.954
   958G11  C00I65655   0.446   7.380  13.076
   958G11  C00H65656   0.546   7.477  13.082
   958G11  C00G65657   0.613   7.497  13.202
   958G11  C00S65658   0.399   7.317  13.191
   958G11  C00T65659   0.447   7.365  13.304
   958G11  C00U65660   0.390   7.313  13.420
   958G11  C00R65661   0.311   7.206  13.185
   958G11  C00L65662   0.340   7.212  12.944
   958G11  C02865663   0.602   7.534  12.973
   958G11  C02365664   0.716   7.607  12.982
   958G11  C02465665   0.785   7.619  13.099
   958G11  C02165666   0.772   7.660  12.869
   958G11  C02265667   0.885   7.739  12.876
   958G11  C02H65668   0.953   7.750  12.995
   958G11  C03065669   1.079   7.804  12.994
   958G11  C03465670   1.123   7.869  12.886
   958G11  C02P65671   0.938   7.783  12.760
   958G11  C02B65672   0.896   7.741  12.631
   958G11  C01J65673   0.578   7.498  12.612
   958G11  C01X65674   0.757   7.367  12.331
   958G11  C01T65675   0.521   7.373  12.608
   958G11  H00965676   0.410   6.944  12.001
   958G11  C01P65677   0.366   7.001  12.339
   958G11  C01R65678   0.387   7.139  12.579
   958G11  C00Z65679   0.167   6.856  12.678
   958G11  O00065680   0.101   6.807  12.785
   958G11  C00M65681   0.331   7.146  12.824
   958G11  C00Y65682   0.114   6.866  12.905
   958G11  C01365683   0.053   6.809  13.019
   958G11  H00165684  -0.009   6.721  13.010
   958G11  C00Q65685   0.287   7.151  13.063
   958G11  C00165686   0.066   6.862  13.144
   958G11  C00065687   0.000   6.810  13.251
   958G11  H00665688  -0.073   6.730  13.251
   958G11  C00W65689   0.264   7.141  13.300
   958G11  C01G65690   0.036   6.852  13.379
   958G11  H00565691  -0.002   6.782  13.451
   958G11  C01C65692   0.094   6.879  13.649
   958G11  H00265693   0.032   6.791  13.638
   958G11  C01B65694   0.146   6.919  13.776
   958G11  C01D65695   0.120   6.874  13.909
   958G11  H00365696   0.035   6.812  13.933
   958G11  C01E65697   0.204   6.904  14.006
   958G11  H00465698   0.171   6.871  14.103
   958G11  O00265699   0.306   6.997  13.991
   958G11  C01A65700   0.245   7.021  13.761
   958G11  C00V65701   0.303   7.201  13.425
   958G11  C01965702   0.323   7.062  13.869
   958G11  C02E65703   0.847   7.236  14.104
   958G11  C0FX65704   0.937   7.202  14.208
   958G11  C0FW65705   1.068   7.253  14.209
   958G11  C0GB65706   0.898   7.112  14.309
   958G11  C0G365707   0.890   7.318  14.003
   958G11  C07H65708   1.020   7.371  14.006
   958G11  C0GC65709   0.767   7.068  14.319
   958G11  C0G265710   0.991   7.073  14.404
   958G11  C0G165711   1.120   7.110  14.394
   958G11  C0FB65712   1.444   7.039  14.547
   958G11  C0F265713   1.515   7.253  14.384
   958G11  C0FY65714   1.157   7.208  14.306
   958G11  C0F565715   1.457   7.404  14.213
   958G11  C0FV65716   1.109   7.334  14.106
   958G11  C07965717   1.407   7.524  14.004
   958G11  C07A65718   1.367   7.618  13.786
   958G11  C06Y65719   1.209   7.653  13.563
   958G11  C07D65720   1.065   7.450  13.901
   958G11  C01F65721   0.808   7.345  13.892
   958G11  C00A65722   0.597   7.303  13.778
   958G11  C00X65723   0.455   7.336  13.543
   958G11  C00F65724   0.558   7.440  13.314
   958G11  C02965725   0.819   7.507  13.567
   958G11  C02565726   0.733   7.562  13.215
   958G11  C06U65727   1.002   7.607  13.450
   958G11  C02A65728   0.901   7.690  13.106
   958G11  C05Y65729   1.155   7.803  13.107
   958G11  C05Z65730   1.285   7.849  13.105
   958G11  C06065731   1.334   7.915  12.992
   958G11  C06265732   1.469   7.964  12.988
   958G11  C06T65733   1.131   7.664  13.447
   958G11  C06A65734   1.366   7.835  13.211
   958G11  C06Z65735   1.341   7.703  13.560
   958G11  C06Q65736   1.603   7.793  13.555
   958G11  C06865737   1.495   7.890  13.213
   958G11  C06765738   1.547   7.949  13.099
   958G11  C06365739   1.958   8.059  13.101
   958G11  C06C65740   2.099   8.061  13.094
   958G11  C06D65741   2.161   8.110  12.982
   958G11  C06E65742   2.297   8.124  12.968
   958G11  C07Q65743   2.375   8.077  13.070
   958G11  C07P65744   2.319   8.039  13.188
   958G11  C07T65745   2.396   8.012  13.297
   958G11  C07U65746   2.337   7.976  13.420
   958G11  C07V65747   2.417   7.951  13.529
   958G11  C08465748   2.556   7.963  13.515
   958G11  C08C65749   2.613   7.999  13.390
   958G11  C08B65750   2.749   8.008  13.380
   958G11  C08A65751   2.802   8.041  13.259
   958G11  C08965752   2.735   8.061  13.147
   958G11  C08865753   2.798   8.096  13.024
   958G11  C08765754   2.715   8.123  12.916
   958G11  C08665755   2.574   8.120  12.934
   958G11  C08X65756   2.938   8.101  13.012
   958G11  C08T65757   3.010   8.050  13.128
   958G11  C08D65758   2.599   8.055  13.162
   958G11  C08U65759   2.939   8.028  13.244
   958G11  C08V65760   3.015   7.979  13.348
   958G11  C0CY65761   2.962   7.951  13.473
   958G11  C0CX65762   3.055   7.909  13.570
   958G11  C0CW65763   2.999   7.882  13.692
   958G11  C0CV65764   2.861   7.890  13.714
   958G11  C0D465765   2.777   7.937  13.608
   958G11  C0CU65766   2.811   7.863  13.834
   958G11  C0CT65767   2.893   7.819  13.940
   958G11  C0CS65768   3.027   7.817  13.917
   958G11  C0D665769   2.676   7.867  13.843
   958G11  C0EC65770   2.586   7.894  13.746
   958G11  C07X65771   2.450   7.873  13.753
   958G11  C0DL65772   2.624   7.815  13.959
   958G11  C0DK65773   2.489   7.802  13.974
   958G11  C0DN65774   2.467   7.759  14.098
   958G11  C0D865775   2.697   7.778  14.073
   958G11  C08W65776   3.144   7.968  13.309
   958G11  C0CQ65777   3.241   7.922  13.411
   958G11  C09365778   2.832   7.966  13.488
   958G11  C09265779   2.639   7.934  13.621
   958G11  C08565780   2.535   8.021  13.283
   958G11  C07S65781   2.515   8.080  13.055
   958G11  C06F65782   2.356   8.169  12.851
   958G11  C07O65783   2.179   8.028  13.200
   958G11  C07N65784   2.122   7.981  13.317
   958G11  C05D65785   2.086   8.181  12.899
   958G11  C05C65786   2.141   8.241  12.785
   958G11  C05N65787   2.038   8.268  12.696
   958G11  C05M65788   1.679   8.131  12.731
   958G11  C05I65789   1.514   8.022  12.865
   958G11  C06165790   1.248   7.924  12.884
   958G11  C02Q65791   1.045   7.862  12.773
   958G11  C02O65792   0.967   7.764  12.511
   958G11  C03Q65793   1.254   7.985  12.538
   958G11  C03O65794   1.420   8.005  12.361
   958G11  C03L65795   1.427   7.872  12.029
   958G11  C02S65796   1.150   7.780  12.260
   958G11  C02T65797   1.090   7.604  12.057
   958G11  C03K65798   1.398   7.780  11.919
   958G11  C03I65799   1.081   7.509  11.961
   958G11  C03G65800   1.052   7.313  11.760
   958G11  H00D65801   1.033   7.242  11.681
   958G11  C03J65802   1.313   7.620  11.699
   958G11  C03W65803   1.451   7.597  11.454
   958G11  C04I65804   1.612   7.752  11.537
   958G11  C04K65805   1.851   7.892  11.520
   958G11  C04N65806   1.979   7.947  11.545
   958G11  C04X65807   2.142   8.066  11.677
   958G11  C05065808   2.318   8.154  11.829
   958G11  C05W65809   2.107   8.213  12.017
   958G11  C05S65810   2.523   8.244  12.229
   958G11  C05R65811   2.189   8.317  12.291
   958G11  C05O65812   2.074   8.297  12.562
   958G11  C05B65813   2.276   8.224  12.752
   958G11  C05A65814   2.481   8.258  12.461
   958G11  C07R65815   2.494   8.155  12.824
   958G11  C08N65816   2.775   8.164  12.791
   958G11  C08M65817   2.921   8.157  12.781
   958G11  C08L65818   2.973   8.159  12.651
   958G11  C09165819   2.574   8.205  12.363
   958G11  C09K65820   2.850   8.017  12.238
   958G11  H00M65821   2.776   7.947  12.201
   958G11  C08K65822   2.888   8.167  12.538
   958G11  C09J65823   2.995   8.018  12.242
   958G11  C09I65824   3.106   7.922  12.223
   958G11  C09L65825   3.130   7.828  12.125
   958G11  H00N65826   3.063   7.802  12.044
   958G11  C09Q65827   3.240   7.752  12.142
   958G11  H00O65828   3.260   7.674  12.069
   958G11  O00B65829   3.335   7.768  12.243
   958G11  C09G65830   3.309   7.857  12.340
   958G11  C09F65831   3.405   7.864  12.446
   958G11  O00A65832   3.503   7.771  12.425
   958G11  C09P65833   3.582   7.730  12.528
   958G11  H00P65834   3.611   7.627  12.519
   958G11  C09O65835   3.587   7.790  12.654
   958G11  C09D65836   3.498   7.900  12.676
   958G11  C09C65837   3.490   7.976  12.803
   958G11  C09N65838   3.530   7.941  12.938
   958G11  C09T65839   3.576   7.815  12.977
   958G11  C09S65840   3.664   7.742  12.891
   958G11  C0CP65841   3.739   7.663  12.975
   958G11  C0CN65842   3.706   7.673  13.111
   958G11  C0CO65843   3.779   7.606  13.207
   958G11  H01465844   3.739   7.609  13.307
   958G11  C0CZ65845   3.892   7.535  13.166
   958G11  H01565846   3.940   7.476  13.243
   958G11  C0D065847   3.931   7.523  13.024
   958G11  C0G565848   4.051   7.456  12.972
   958G11  H01F65849   4.126   7.422  13.041
   958G11  C0G465850   4.059   7.448  12.836
   958G11  H01G65851   4.151   7.400  12.807
   958G11  O00H65852   3.964   7.477  12.741
   958G11  C0D265853   3.868   7.564  12.787
   958G11  C09V65854   3.785   7.647  12.704
   958G11  H00Q65855   3.810   7.644  12.599
   958G11  C0D165856   3.843   7.580  12.926
   958G11  C09R65857   3.679   7.736  12.750
   958G11  C09H65858   3.194   7.941  12.332
   958G11  C09E65859   3.410   7.945  12.565
   958G11  C09B65860   3.413   8.089  12.812
   958G11  C08Z65861   3.116   8.143  12.648
   958G11  C08O65862   3.005   8.141  12.895
   958G11  C09A65863   3.395   8.137  12.947
   958G11  C08S65864   3.142   8.013  13.172
   958G11  C09965865   3.466   8.036  13.029
   958G11  C09U65866   3.609   7.782  13.118
   958G11  C0BO65867   3.684   7.852  13.587
   958G11  C0CL65868   3.377   7.899  13.383
   958G11  C0D365869   3.189   7.898  13.539
   958G11  C0D565870   3.082   7.847  13.794
   958G11  C0BR65871   3.494   7.839  13.731
   958G11  C0BQ65872   3.630   7.852  13.712
   958G11  C0BL65873   3.908   7.866  13.677
   958G11  C0AF65874   4.067   7.906  13.889
   958G11  C0BH65875   3.748   7.878  14.060
   958G11  C0BG65876   3.694   7.868  14.190
   958G11  C0BD65877   3.911   7.914  14.283
   958G11  C0AG65878   4.142   7.927  14.002
   958G11  C0AI65879   4.364   7.922  14.091
   958G11  C0AV65880   4.546   7.887  14.289
   958G11  C0BB65881   4.230   7.963  14.460
   958G11  O00C65882   4.563   7.846  14.526
   958G11  C0BC65883   4.202   7.921  14.581
   958G11  C0B965884   4.003   7.913  14.394
   958G11  O00E65885   3.776   7.826  14.668
   958G11  C0CA65886   3.643   7.803  14.694
   958G11  O00F65887   3.606   7.779  14.808
   958G11  C0BF65888   3.778   7.881  14.298
   958G11  C0C565889   3.553   7.817  14.578
   958G11  C0C465890   3.412   7.796  14.599
   958G11  H01165891   3.374   7.778  14.699
   958G11  C0C865892   3.560   7.844  14.213
   958G11  C0C265893   3.323   7.791  14.486
   958G11  C0C365894   3.182   7.754  14.495
   958G11  C0DY65895   3.121   7.699  14.606
   958G11  H01665896   3.152   7.687  14.709
   958G11  C0DX65897   2.990   7.667  14.553
   958G11  C0DW65898   2.894   7.632  14.650
   958G11  C0BY65899   3.339   7.813  14.120
   958G11  C0DB65900   3.100   7.749  14.385
   958G11  C0CC65901   3.111   7.798  14.028
   958G11  C0D765902   2.840   7.782  14.065
   958G11  C0DZ65903   2.972   7.695  14.409
   958G11  C0DM65904   2.591   7.731  14.163
   958G11  C0DQ65905   2.687   7.619  14.484
   958G11  C0DV65906   2.756   7.618  14.606
   958G11  C0E065907   2.906   7.631  14.793
   958G11  C0FO65908   2.657   7.480  14.994
   958G11  C0E365909   2.974   7.533  14.872
   958G11  H01765910   3.057   7.472  14.840
   958G11  C0GV65911   2.720   7.388  15.078
   958G11  C0ES65912   2.537   7.447  14.941
   958G11  C0GQ65913   2.441   7.211  15.207
   958G11  C0FJ65914   2.102   7.286  15.068
   958G11  C0ED65915   2.266   7.386  14.858
   958G11  C0ER65916   2.005   7.215  14.696
   958G11  C0EP65917   1.993   7.356  14.516
   958G11  C0E665918   2.347   7.487  14.633
   958G11  C0DE65919   2.344   7.611  14.347
   958G11  C0EA65920   1.959   7.510  14.309
   958G11  C0DF65921   2.282   7.695  14.249
   958G11  C08065922   1.997   7.707  14.032
   958G11  C0DO65923   2.337   7.737  14.126
   958G11  C0DJ65924   2.399   7.829  13.871
   958G11  C07K65925   2.033   7.823  13.789
   958G11  C07W65926   2.362   7.899  13.651
   958G11  C08365927   2.200   7.956  13.427
   958G11  C07J65928   1.954   7.845  13.671
   958G11  C06O65929   1.788   7.897  13.437
   958G11  C06M65930   1.985   7.970  13.324
   968G11  C07165931   5.915   5.861   5.733
   968G11  C07L65932   5.809   5.939   5.767
   968G11  C07M65933   5.819   6.074   5.767
   968G11  C07Y65934   5.709   6.159   5.808
   968G11  C08165935   5.580   6.104   5.841
   968G11  C08265936   5.476   6.195   5.877
   968G11  C0DI65937   5.336   6.165   5.919
   968G11  C0DH65938   5.261   6.051   5.947
   968G11  C0DG65939   5.121   6.080   5.968
   968G11  C0E965940   5.038   6.029   6.075
   968G11  C0E865941   4.972   6.155   6.128
   968G11  C0E765942   4.850   6.161   6.212
   968G11  C0EB65943   4.770   6.041   6.231
   968G11  C0EF65944   4.627   6.040   6.257
   968G11  C0EE65945   4.528   6.139   6.257
   968G11  C0FD65946   4.396   6.108   6.214
   968G11  C0FE65947   4.363   6.002   6.126
   968G11  H01B65948   4.439   5.940   6.081
   968G11  C0FF65949   4.235   5.975   6.079
   968G11  H01A65950   4.231   5.899   6.002
   968G11  C0FG65951   4.127   6.047   6.127
   968G11  H01865952   4.028   6.020   6.094
   968G11  C0FH65953   4.151   6.158   6.217
   968G11  C0FI65954   4.053   6.250   6.267
   968G11  H01965955   3.949   6.243   6.235
   968G11  O00K65956   4.078   6.365   6.336
   968G11  C0FL65957   4.204   6.379   6.374
   968G11  C0FK65958   4.314   6.298   6.339
   968G11  C0FM65959   4.448   6.334   6.379
   968G11  C0FN65960   4.463   6.447   6.464
   968G11  C0FP65961   4.349   6.526   6.496
   968G11  C0GO65962   4.354   6.643   6.562
   968G11  C0GN65963   4.246   6.729   6.596
   968G11  C0GR65964   4.116   6.671   6.574
   968G11  C0GS65965   4.009   6.744   6.615
   968G11  H01Q65966   3.910   6.703   6.602
   968G11  C0GT65967   4.021   6.874   6.655
   968G11  H01O65968   3.941   6.937   6.690
   968G11  C0GU65969   4.143   6.941   6.653
   968G11  H01P65970   4.154   7.046   6.676
   968G11  O00L65971   4.108   6.555   6.510
   968G11  C0GM65972   4.262   6.869   6.626
   968G11  C0GL65973   4.401   6.914   6.629
   968G11  H01R65974   4.423   7.019   6.641
   968G11  C0GK65975   4.508   6.821   6.619
   968G11  C0GP65976   4.651   6.839   6.609
   968G11  C0E265977   4.711   6.704   6.600
   968G11  C0E165978   4.828   6.716   6.518
   968G11  C0DU65979   4.857   6.627   6.412
   968G11  C0DT65980   4.818   6.490   6.391
   968G11  C0E465981   4.698   6.434   6.432
   968G11  C0E565982   4.684   6.318   6.348
   968G11  C0DS65983   4.865   6.411   6.286
   968G11  C0DR65984   4.956   6.477   6.200
   968G11  C0DD65985   5.022   6.419   6.094
   968G11  C0DC65986   5.094   6.536   6.031
   968G11  C0DP65987   5.061   6.662   6.094
   968G11  C0DA65988   5.106   6.796   6.069
   968G11  C0D965989   5.210   6.850   5.975
   968G11  C0CR65990   5.220   6.989   5.935
   968G11  C0C065991   5.132   7.084   5.980
   968G11  C0BZ65992   5.130   7.218   5.944
   968G11  C0C165993   5.037   7.306   5.996
   968G11  C0C765994   5.036   7.438   5.944
   968G11  C0C665995   4.946   7.535   5.991
   968G11  C0C965996   4.948   7.659   5.941
   968G11  C0B865997   4.866   7.759   5.997
   968G11  C0B765998   4.839   7.884   5.929
   968G11  C0B665999   4.781   8.011   5.967
   968G11  C0B566000   4.784   8.079   6.096
   968G11  H00Z66001   4.813   8.036   6.191
   968G11  C0B466002   4.754   8.222   6.073
   968G11  H01066003   4.762   8.299   6.149
   968G11  C0B366004   4.747   8.241   5.932
   968G11  C0AP66005   4.765   8.326   5.816
   968G11  C0AQ66006   4.793   8.233   5.708
   968G11  C0AR66007   4.883   8.278   5.607
   968G11  C0AS66008   4.967   8.176   5.566
   968G11  C0AT66009   4.971   8.048   5.618
   968G11  C0BA66010   4.883   8.008   5.717
   968G11  C0AU66011   5.083   7.970   5.601
   968G11  C0BE66012   5.098   7.850   5.667
   968G11  C0BI66013   5.209   7.772   5.637
   968G11  C0BJ66014   5.317   7.824   5.566
   968G11  C0BK66015   5.432   7.749   5.546
   968G11  C0BW66016   5.447   7.621   5.605
   968G11  C0BV66017   5.336   7.575   5.681
   968G11  C0BU66018   5.347   7.450   5.745
   968G11  C0BX66019   5.240   7.399   5.821
   968G11  C0BT66020   5.458   7.369   5.719
   968G11  C0CD66021   5.457   7.237   5.765
   968G11  C0CB66022   5.344   7.183   5.838
   968G11  C0CE66023   5.560   7.154   5.734
   968G11  C0CK66024   5.671   7.208   5.658
   968G11  C0BS66025   5.678   7.342   5.616
   968G11  C0CJ66026   5.788   7.393   5.548
   968G11  C0BP66027   5.786   7.519   5.495
   968G11  C0CI66028   5.893   7.571   5.417
   968G11  C0CH66029   5.877   7.704   5.384
   968G11  H01266030   5.974   7.747   5.366
   968G11  C0BN66031   5.758   7.784   5.392
   968G11  C0CG66032   5.747   7.908   5.337
   968G11  C0CF66033   5.857   7.964   5.267
   968G11  H01366034   5.953   7.916   5.257
   968G11  O00G66035   5.857   8.097   5.230
   968G11  C0AA66036   5.749   8.175   5.248
   968G11  C0A966037   5.762   8.305   5.221
   968G11  H00U66038   5.854   8.349   5.185
   968G11  C0A866039   5.651   8.394   5.239
   968G11  H00V66040   5.665   8.501   5.229
   968G11  C0A766041   5.525   8.345   5.287
   968G11  C0A666042   5.517   8.205   5.328
   968G11  C0A566043   5.407   8.138   5.389
   968G11  C0A466044   5.283   8.214   5.414
   968G11  C0A366045   5.233   8.349   5.403
   968G11  C0A266046   5.310   8.465   5.374
   968G11  C0A166047   5.253   8.586   5.353
   968G11  C0A066048   5.131   8.656   5.396
   968G11  C09Z66049   5.126   8.791   5.360
   968G11  C09Y66050   5.027   8.876   5.418
   968G11  H00Y66051   5.015   8.981   5.395
   968G11  C09X66052   4.947   8.817   5.523
   968G11  C09W66053   4.868   8.908   5.598
   968G11  H00R66054   4.870   9.015   5.584
   968G11  C0AX66055   4.792   8.866   5.707
   968G11  H00S66056   4.735   8.938   5.762
   968G11  C0AW66057   4.782   8.731   5.732
   968G11  H00T66058   4.718   8.696   5.811
   968G11  C0AN66059   4.861   8.637   5.658
   968G11  C0AO66060   4.853   8.499   5.682
   968G11  C0AM66061   4.946   8.685   5.554
   968G11  C0B266062   5.209   8.866   5.272
   968G11  O00D66063   5.191   8.985   5.238
   968G11  C0B166064   5.316   8.793   5.217
   968G11  H00W66065   5.376   8.833   5.136
   968G11  C0AL66066   5.039   8.599   5.492
   968G11  C0AK66067   5.019   8.460   5.513
   968G11  C0B066068   5.334   8.660   5.265
   968G11  C0AZ66069   5.439   8.576   5.227
   968G11  H00X66070   5.515   8.597   5.153
   968G11  C0AJ66071   5.107   8.353   5.464
   968G11  C0AH66072   5.184   8.142   5.472
   968G11  C0AE66073   5.418   8.009   5.441
   968G11  C0AD66074   5.533   7.934   5.422
   968G11  C0AY66075   5.429   8.455   5.298
   968G11  C0AB66076   5.633   8.126   5.306
   968G11  C0AC66077   5.637   7.992   5.360
   968G11  C0BM66078   5.653   7.723   5.460
   968G11  C0CM66079   6.007   7.484   5.398
   968G11  C09M66080   6.022   7.365   5.479
   968G11  C09866081   6.156   7.323   5.510
   968G11  C08R66082   6.212   7.194   5.542
   968G11  C08Q66083   6.351   7.189   5.561
   968G11  C08P66084   6.457   7.089   5.548
   968G11  C08Y66085   6.581   7.139   5.512
   968G11  C09766086   6.598   7.270   5.469
   968G11  C09666087   6.696   7.277   5.378
   968G11  C09066088   6.776   7.161   5.408
   968G11  C09566089   6.888   7.119   5.339
   968G11  C09466090   6.976   7.012   5.376
   968G11  C08J66091   6.940   6.894   5.455
   968G11  C08I66092   7.008   6.788   5.401
   968G11  C08H66093   6.938   6.667   5.439
   968G11  C08G66094   6.801   6.703   5.468
   968G11  C08F66095   6.672   6.635   5.493
   968G11  C08E66096   6.662   6.495   5.489
   968G11  C05966097   6.759   6.404   5.440
   968G11  C05866098   6.733   6.263   5.422
   968G11  C05766099   6.825   6.161   5.396
   968G11  C05666100   6.957   6.204   5.374
   968G11  C05566101   6.993   6.335   5.378
   968G11  C05466102   7.124   6.355   5.419
   968G11  C05366103   7.180   6.225   5.455
   968G11  C05266104   7.302   6.185   5.526
   968G11  C05166105   7.389   6.287   5.579
   968G11  C05U66106   7.366   6.434   5.584
   968G11  C05T66107   7.257   6.524   5.544
   968G11  C06K66108   7.306   6.662   5.555
   968G11  H00J66109   7.236   6.740   5.531
   968G11  C06L66110   7.443   6.656   5.591
   968G11  H00I66111   7.506   6.742   5.612
   968G11  C05V66112   7.475   6.519   5.614
   968G11  C06J66113   7.597   6.472   5.663
   968G11  H00K66114   7.674   6.539   5.698
   968G11  C05X66115   7.623   6.334   5.673
   968G11  C06I66116   7.745   6.282   5.719
   968G11  H00L66117   7.828   6.347   5.744
   968G11  C04Z66118   7.770   6.141   5.746
   968G11  C06H66119   7.892   6.085   5.788
   968G11  H00H66120   7.977   6.150   5.800
   968G11  C04Y66121   7.899   5.946   5.827
   968G11  C06G66122   8.025   5.897   5.870
   968G11  O00966123   8.137   5.949   5.868
   968G11  O00866124   8.029   5.767   5.915
   968G11  C04P66125   7.921   5.681   5.908
   968G11  C04J66126   7.923   5.543   5.944
   968G11  C04Q66127   8.025   5.476   6.005
   968G11  H00E66128   8.109   5.539   6.029
   968G11  C04M66129   8.011   5.344   6.048
   968G11  C04R66130   8.111   5.272   6.118
   968G11  H00F66131   8.204   5.312   6.156
   968G11  C04S66132   8.090   5.141   6.151
   968G11  H00G66133   8.174   5.095   6.201
   968G11  O00766134   7.984   5.067   6.110
   968G11  C03V66135   7.881   5.134   6.047
   968G11  C03U66136   7.754   5.075   6.033
   968G11  O00666137   7.740   4.947   6.082
   968G11  C03F66138   7.618   4.886   6.083
   968G11  C03E66139   7.508   4.944   6.018
   968G11  C03D66140   7.523   5.075   5.961
   968G11  C03C66141   7.411   5.134   5.894
   968G11  C03B66142   7.296   5.052   5.892
   968G11  C03A66143   7.192   5.107   5.812
   968G11  C03966144   7.190   5.230   5.749
   968G11  C03866145   7.062   5.234   5.687
   968G11  C03766146   7.001   5.107   5.707
   968G11  C03666147   6.870   5.081   5.662
   968G11  C02R66148   6.796   4.969   5.699
   968G11  C03566149   6.673   5.011   5.648
   968G11  C03R66150   6.671   5.138   5.590
   968G11  C03S66151   6.564   5.228   5.604
   968G11  C04966152   6.589   5.363   5.584
   968G11  C04866153   6.725   5.401   5.581
   968G11  C03P66154   6.836   5.314   5.599
   968G11  C04766155   6.736   5.536   5.548
   968G11  C04666156   6.856   5.602   5.519
   968G11  C04566157   6.988   5.567   5.533
   968G11  C03T66158   7.046   5.449   5.583
   968G11  C04466159   7.186   5.477   5.609
   968G11  C04366160   7.218   5.596   5.531
   968G11  C04266161   7.325   5.668   5.588
   968G11  C04166162   7.377   5.559   5.681
   968G11  C04066163   7.495   5.575   5.763
   968G11  C03Z66164   7.575   5.465   5.821
   968G11  C04H66165   7.697   5.523   5.861
   968G11  C04G66166   7.692   5.655   5.826
   968G11  C03N66167   7.548   5.327   5.859
   968G11  C03Y66168   7.660   5.269   5.930
   968G11  C03X66169   7.786   5.334   5.954
   968G11  C04F66170   7.577   5.693   5.770
   968G11  C04E66171   7.568   5.825   5.721
   968G11  C04O66172   7.673   5.915   5.752
   968G11  C04D66173   7.463   5.876   5.641
   968G11  C04V66174   7.459   6.014   5.608
   968G11  C04W66175   7.556   6.110   5.653
   968G11  C04C66176   7.356   5.814   5.574
   968G11  C04L66177   7.281   5.919   5.506
   968G11  C04U66178   7.153   5.892   5.450
   968G11  C05Q66179   7.058   5.995   5.411
   968G11  C05P66180   6.924   5.947   5.402
   968G11  C04T66181   6.932   5.814   5.443
   968G11  C04B66182   7.067   5.784   5.465
   968G11  C03M66183   7.294   5.440   5.690
   968G11  C04A66184   7.096   5.653   5.507
   968G11  C05H66185   6.821   5.733   5.479
   968G11  C05G66186   6.682   5.752   5.500
   968G11  C05F66187   6.611   5.861   5.463
   968G11  C05E66188   6.485   5.890   5.524
   968G11  C05L66189   6.374   5.818   5.589
   968G11  C05K66190   6.377   5.676   5.603
   968G11  C05J66191   6.487   5.589   5.588
   968G11  C06666192   6.255   5.619   5.650
   968G11  C06566193   6.138   5.696   5.670
   968G11  C06466194   6.141   5.836   5.662
   968G11  C06N66195   6.018   5.640   5.716
   968G11  C06966196   6.010   5.505   5.746
   968G11  C06P66197   5.897   5.450   5.800
   968G11  C06R66198   5.888   5.316   5.825
   968G11  C06B66199   5.995   5.236   5.800
   968G11  C06S66200   5.985   5.098   5.821
   968G11  C02G66201   6.091   5.016   5.792
   968G11  C02F66202   6.083   4.878   5.816
   968G11  C02766203   5.968   4.824   5.873
   968G11  C02666204   5.965   4.693   5.918
   968G11  C00E66205   5.848   4.637   5.970
   968G11  C00D66206   5.850   4.513   6.013
   968G11  C00C66207   5.737   4.466   6.075
   968G11  C00B66208   5.619   4.534   6.089
   968G11  C01566209   5.620   4.665   6.044
   968G11  C07F66210   5.512   4.748   6.067
   968G11  C07E66211   5.513   4.878   6.023
   968G11  C06W66212   5.630   4.926   5.966
   968G11  C06V66213   5.743   4.846   5.939
   968G11  C06X66214   5.640   5.063   5.937
   968G11  C07B66215   5.530   5.146   5.967
   968G11  C07C66216   5.415   5.094   6.020
   968G11  C0FU66217   5.312   5.183   6.064
   968G11  C0F766218   5.199   5.132   6.124
   968G11  C0F666219   5.094   5.221   6.165
   968G11  C0F866220   4.986   5.175   6.242
   968G11  C0F966221   4.888   5.262   6.283
   968G11  C0FA66222   4.776   5.212   6.350
   968G11  C0FZ66223   4.776   5.079   6.381
   968G11  C0G066224   4.666   5.023   6.451
   968G11  C0GD66225   4.562   5.104   6.499
   968G11  C0FC66226   4.568   5.239   6.473
   968G11  C0GH66227   4.462   5.324   6.513
   968G11  C0EY66228   4.476   5.461   6.480
   968G11  C0EX66229   4.373   5.552   6.528
   968G11  C0EW66230   4.387   5.690   6.507
   968G11  C0FR66231   4.303   5.783   6.569
   968G11  H01D66232   4.322   5.890   6.567
   968G11  C0FS66233   4.194   5.735   6.641
   968G11  H01C66234   4.136   5.813   6.688
   968G11  C0GJ66235   4.177   5.598   6.653
   968G11  H01N66236   4.091   5.563   6.708
   968G11  C0EV66237   4.486   5.736   6.421
   968G11  C0FT66238   4.480   5.865   6.372
   968G11  H01E66239   4.406   5.939   6.396
   968G11  C0EU66240   4.590   5.652   6.384
   968G11  C0ET66241   4.700   5.698   6.314
   968G11  C0EI66242   4.803   5.623   6.265
   968G11  C0F166243   4.794   5.486   6.297
   968G11  C0F066244   4.687   5.433   6.372
   968G11  C0EH66245   4.910   5.684   6.190
   968G11  C0EG66246   4.919   5.828   6.165
   968G11  C0EJ66247   5.009   5.594   6.146
   968G11  C0F366248   4.996   5.455   6.170
   968G11  C0EK66249   5.122   5.649   6.079
   968G11  C0EL66250   5.134   5.790   6.056
   968G11  C0EM66251   5.259   5.812   5.991
   968G11  C0EN66252   5.344   5.709   5.953
   968G11  C07I66253   5.461   5.764   5.900
   968G11  C07466254   5.569   5.684   5.860
   968G11  C07366255   5.682   5.747   5.820
   968G11  C07266256   5.791   5.666   5.796
   968G11  C07566257   5.557   5.551   5.884
   968G11  C07666258   5.440   5.495   5.938
   968G11  C07866259   5.426   5.362   5.968
   968G11  C07G66260   5.666   5.473   5.864
   968G11  C07066261   5.651   5.337   5.888
   968G11  C07Z66262   5.456   5.901   5.892
   968G11  C07766263   5.332   5.580   5.978
   968G11  C0EO66264   5.214   5.543   6.042
   968G11  C0F466265   5.208   5.404   6.066
   968G11  C0EQ66266   4.704   5.836   6.288
   968G11  C0FQ66267   4.266   5.507   6.594
   968G11  C0GI66268   4.252   5.370   6.615
   968G11  H01L66269   4.165   5.335   6.667
   968G11  C0EZ66270   4.587   5.514   6.416
   968G11  C0GG66271   4.351   5.276   6.576
   968G11  C0GF66272   4.348   5.138   6.605
   968G11  H01M66273   4.260   5.116   6.665
   968G11  C0GE66274   4.450   5.054   6.571
   968G11  H01K66275   4.447   4.948   6.588
   968G11  O00J66276   4.647   4.892   6.474
   968G11  C0GA66277   4.742   4.813   6.425
   968G11  C0G966278   4.721   4.681   6.433
   968G11  H01H66279   4.631   4.640   6.477
   968G11  C0G866280   4.816   4.582   6.399
   968G11  C0G766281   4.809   4.435   6.405
   968G11  H01I66282   4.711   4.392   6.415
   968G11  O00I66283   4.918   4.359   6.394
   968G11  C0G666284   5.031   4.410   6.346
   968G11  H01J66285   5.102   4.336   6.311
   968G11  C02D66286   5.054   4.549   6.333
   968G11  C02C66287   5.174   4.592   6.279
   968G11  C01766288   5.291   4.509   6.249
   968G11  C01666289   5.395   4.558   6.176
   968G11  O00166290   5.301   4.382   6.306
   968G11  C01866291   5.419   4.318   6.316
   968G11  C00966292   5.531   4.360   6.243
   968G11  C00866293   5.657   4.291   6.223
   968G11  C00766294   5.716   4.170   6.285
   968G11  C00666295   5.668   4.109   6.397
   968G11  C00566296   5.732   4.009   6.471
   968G11  C00466297   5.868   3.960   6.460
   968G11  C00366298   5.985   4.007   6.387
   968G11  C00266299   6.114   3.944   6.412
   968G11  C00P66300   6.230   3.996   6.360
   968G11  C00O66301   6.359   3.935   6.386
   968G11  C00N66302   6.474   4.002   6.339
   968G11  C01066303   6.598   3.955   6.377
   968G11  C01166304   6.717   4.023   6.340
   968G11  C01Q66305   6.845   3.972   6.369
   968G11  C01U66306   6.855   3.849   6.439
   968G11  C01266307   6.737   3.788   6.481
   968G11  H00066308   6.739   3.692   6.530
   968G11  C01V66309   6.981   3.802   6.465
   968G11  H00766310   6.988   3.710   6.523
   968G11  O00566311   7.097   3.861   6.414
   968G11  C01W66312   7.089   3.979   6.358
   968G11  C03166313   7.208   4.045   6.314
   968G11  C03266314   7.198   4.169   6.242
   968G11  H00A66315   7.284   4.223   6.206
   968G11  C03366316   7.071   4.208   6.198
   968G11  H00B66317   7.076   4.286   6.124
   968G11  C01O66318   6.951   4.154   6.253
   968G11  C01N66319   6.830   4.203   6.219
   968G11  C01M66320   6.813   4.330   6.136
   968G11  C01L66321   6.885   4.456   6.077
   968G11  C01K66322   6.793   4.512   5.990
   968G11  C01Y66323   6.806   4.632   5.924
   968G11  C02I66324   6.927   4.705   5.932
   968G11  C02N66325   6.934   4.826   5.859
   968G11  C02M66326   7.056   4.894   5.862
   968G11  C02L66327   7.164   4.849   5.940
   968G11  C02K66328   7.143   4.735   6.019
   968G11  C02U66329   7.244   4.695   6.107
   968G11  C02V66330   7.369   4.755   6.090
   968G11  C03H66331   7.482   4.701   6.156
   968G11  H00C66332   7.468   4.606   6.205
   968G11  C02W66333   7.218   4.602   6.208
   968G11  C02X66334   7.096   4.534   6.200
   968G11  C02Y66335   7.087   4.468   6.325
   968G11  H00866336   7.009   4.400   6.357
   968G11  C02Z66337   7.205   4.500   6.403
   968G11  O00466338   7.227   4.474   6.521
   968G11  O00366339   7.286   4.581   6.329
   968G11  C02J66340   7.025   4.655   6.017
   968G11  C01Z66341   6.686   4.671   5.865
   968G11  C02066342   6.563   4.609   5.881
   968G11  C01I66343   6.556   4.489   5.942
   968G11  C01H66344   6.445   4.430   5.994
   968G11  C00K66345   6.450   4.326   6.087
   968G11  C01S66346   6.566   4.278   6.135
   968G11  C01466347   6.585   4.176   6.216
   968G11  C00J66348   6.331   4.265   6.130
   968G11  C00I66349   6.212   4.316   6.085
   968G11  C00H66350   6.205   4.429   6.006
   968G11  C00G66351   6.085   4.493   5.979
   968G11  C00S66352   6.097   4.255   6.134
   968G11  C00T66353   5.986   4.322   6.093
   968G11  C00U66354   5.868   4.277   6.156
   968G11  C00R66355   6.100   4.160   6.236
   968G11  C00L66356   6.341   4.155   6.216
   968G11  C02866357   6.321   4.482   5.960
   968G11  C02366358   6.323   4.603   5.889
   968G11  C02466359   6.202   4.675   5.874
   968G11  C02166360   6.442   4.667   5.853
   968G11  C02266361   6.439   4.793   5.795
   968G11  C02H66362   6.319   4.864   5.782
   968G11  C03066363   6.318   4.993   5.727
   968G11  C03466364   6.438   5.042   5.687
   968G11  C02P66365   6.562   4.851   5.760
   968G11  C02B66366   6.687   4.794   5.797
   968G11  C01J66367   6.675   4.437   5.986
   968G11  C01X66368   7.002   4.535   6.098
   968G11  C01T66369   6.681   4.345   6.089
   968G11  H00966370   7.305   4.000   6.328
   968G11  C01P66371   6.961   4.041   6.332
   968G11  C01R66372   6.716   4.135   6.257
   968G11  C00Z66373   6.608   3.836   6.450
   968G11  O00066374   6.498   3.762   6.491
   968G11  C00M66375   6.467   4.114   6.259
   968G11  C00Y66376   6.373   3.817   6.466
   968G11  C01366377   6.251   3.767   6.518
   968G11  H00166378   6.261   3.673   6.570
   968G11  C00Q66379   6.222   4.106   6.274
   968G11  C00166380   6.124   3.825   6.493
   968G11  C00066381   6.007   3.772   6.550
   968G11  H00666382   6.002   3.676   6.600
   968G11  C00W66383   5.983   4.117   6.299
   968G11  C01G66384   5.889   3.841   6.535
   968G11  H00566385   5.811   3.782   6.582
   968G11  C01C66386   5.630   3.947   6.551
   968G11  H00266387   5.646   3.866   6.620
   968G11  C01B66388   5.513   4.025   6.534
   968G11  C01D66389   5.385   3.994   6.589
   968G11  H00366390   5.369   3.910   6.655
   968G11  C01E66391   5.283   4.072   6.542
   968G11  H00466392   5.183   4.045   6.571
   968G11  O00266393   5.297   4.189   6.471
   968G11  C01A66394   5.529   4.128   6.443
   968G11  C00V66395   5.856   4.177   6.253
   968G11  C01966396   5.421   4.211   6.410
   968G11  C02E66397   5.178   4.727   6.228
   968G11  C0FX66398   5.074   4.816   6.263
   968G11  C0FW66399   5.077   4.956   6.225
   968G11  C0GB66400   4.966   4.769   6.336
   968G11  C0G366401   5.288   4.778   6.159
   968G11  C07H66402   5.292   4.909   6.117
   968G11  C0GC66403   4.944   4.633   6.358
   968G11  C0G266404   4.865   4.858   6.370
   968G11  C0G166405   4.871   4.993   6.337
   968G11  C0FB66406   4.676   5.294   6.398
   968G11  C0F266407   4.894   5.399   6.245
   968G11  C0FY66408   4.974   5.040   6.262
   968G11  C0F566409   5.095   5.362   6.130
   968G11  C0FV66410   5.188   5.001   6.156
   968G11  C07966411   5.314   5.316   6.029
   968G11  C07A66412   5.536   5.281   5.938
   968G11  C06Y66413   5.758   5.121   5.889
   968G11  C07D66414   5.404   4.962   6.051
   968G11  C01F66415   5.396   4.695   6.132
   968G11  C00A66416   5.513   4.486   6.168
   968G11  C00X66417   5.752   4.340   6.137
   968G11  C00F66418   5.972   4.441   6.029
   968G11  C02966419   5.737   4.713   5.983
   968G11  C02566420   6.083   4.615   5.917
   968G11  C06U66421   5.855   4.903   5.887
   968G11  C02A66422   6.199   4.804   5.819
   968G11  C05Y66423   6.208   5.071   5.742
   968G11  C05Z66424   6.222   5.210   5.723
   968G11  C06066425   6.341   5.262   5.673
   968G11  C06266426   6.359   5.398   5.652
   968G11  C06T66427   5.866   5.040   5.865
   968G11  C06A66428   6.112   5.287   5.748
   968G11  C06Z66429   5.765   5.260   5.869
   968G11  C06Q66430   5.787   5.530   5.824
   968G11  C06866431   6.125   5.425   5.719
   968G11  C06766432   6.248   5.478   5.675
   968G11  C06366433   6.262   5.895   5.624
   968G11  C06C66434   6.268   6.036   5.614
   968G11  C06D66435   6.374   6.105   5.563
   968G11  C06E66436   6.395   6.243   5.560
   968G11  C07Q66437   6.290   6.318   5.596
   968G11  C07P66438   6.174   6.254   5.644
   968G11  C07T66439   6.068   6.335   5.683
   968G11  C07U66440   5.949   6.275   5.725
   968G11  C07V66441   5.840   6.352   5.750
   968G11  C08466442   5.853   6.491   5.728
   968G11  C08C66443   5.970   6.547   5.689
   968G11  C08B66444   5.973   6.684   5.665
   968G11  C08A66445   6.091   6.737   5.615
   968G11  C08966446   6.205   6.671   5.593
   968G11  C08866447   6.324   6.737   5.566
   968G11  C08766448   6.436   6.657   5.550
   968G11  C08666449   6.428   6.515   5.558
   968G11  C08X66450   6.330   6.877   5.549
   968G11  C08T66451   6.204   6.945   5.548
   968G11  C08D66452   6.199   6.532   5.623
   968G11  C08U66453   6.094   6.868   5.588
   968G11  C08V66454   5.982   6.946   5.598
   968G11  C0CY66455   5.870   6.901   5.656
   968G11  C0CX66456   5.771   6.989   5.679
   968G11  C0CW66457   5.657   6.935   5.735
   968G11  C0CV66458   5.648   6.800   5.765
   968G11  C0D466459   5.755   6.713   5.737
   968G11  C0CU66460   5.535   6.743   5.821
   968G11  C0CT66461   5.428   6.825   5.851
   968G11  C0CS66462   5.436   6.963   5.833
   968G11  C0D666463   5.531   6.607   5.833
   968G11  C0EC66464   5.629   6.518   5.806
   968G11  C07X66465   5.616   6.383   5.822
   968G11  C0DL66466   5.416   6.554   5.878
   968G11  C0DK66467   5.401   6.416   5.891
   968G11  C0DN66468   5.277   6.396   5.927
   968G11  C0D866469   5.297   6.628   5.910
   968G11  C08W66470   6.005   7.076   5.559
   968G11  C0CQ66471   5.894   7.174   5.573
   968G11  C09366472   5.864   6.766   5.684
   968G11  C09266473   5.748   6.578   5.760
   968G11  C08566474   6.080   6.473   5.668
   968G11  C07S66475   6.306   6.454   5.596
   968G11  C06F66476   6.513   6.299   5.514
   968G11  C07O66477   6.163   6.115   5.655
   968G11  C07N66478   6.046   6.054   5.696
   968G11  C05D66479   6.468   6.024   5.503
   968G11  C05C66480   6.583   6.085   5.459
   968G11  C05N66481   6.675   5.986   5.430
   968G11  C05M66482   6.625   5.630   5.551
   968G11  C05I66483   6.481   5.449   5.607
   968G11  C06166484   6.445   5.176   5.655
   968G11  C02Q66485   6.553   4.965   5.692
   968G11  C02O66486   6.811   4.862   5.792
   968G11  C03Q66487   6.796   5.182   5.603
   968G11  C03O66488   6.978   5.336   5.620
   968G11  C03L66489   7.305   5.320   5.767
   968G11  C02S66490   7.077   5.029   5.795
   968G11  C02T66491   7.284   4.927   5.946
   968G11  C03K66492   7.419   5.262   5.836
   968G11  C03I66493   7.390   4.872   6.015
   968G11  C03G66494   7.615   4.762   6.144
   968G11  H00D66495   7.701   4.719   6.195
   968G11  C03J66496   7.644   5.141   5.976
   968G11  C03W66497   7.892   5.275   6.021
   968G11  C04I66498   7.807   5.467   5.923
   968G11  C04K66499   7.806   5.732   5.858
   968G11  C04N66500   7.790   5.870   5.819
   968G11  C04X66501   7.664   6.054   5.718
   968G11  C05066502   7.521   6.247   5.633
   968G11  C05W66503   7.339   6.046   5.540
   968G11  C05S66504   7.133   6.481   5.483
   968G11  C05R66505   7.078   6.135   5.407
   968G11  C05O66506   6.806   6.024   5.402
   968G11  C05B66507   6.610   6.223   5.456
   968G11  C05A66508   6.900   6.431   5.420
   968G11  C07R66509   6.539   6.439   5.524
   968G11  C08N66510   6.558   6.718   5.516
   968G11  C08M66511   6.563   6.863   5.509
   968G11  C08L66512   6.691   6.930   5.483
   968G11  C09166513   6.988   6.534   5.461
   968G11  C09K66514   7.066   6.829   5.272
   968G11  H00M66515   7.054   6.761   5.188
   968G11  C08K66516   6.803   6.848   5.472
   968G11  C09J66517   7.061   6.976   5.273
   968G11  C09I66518   7.040   7.086   5.183
   968G11  C09L66519   7.118   7.115   5.069
   968G11  H00N66520   7.209   7.060   5.052
   968G11  C09Q66521   7.079   7.218   4.994
   968G11  H00O66522   7.144   7.247   4.912
   968G11  O00B66523   6.969   7.298   5.026
   968G11  C09G66524   6.894   7.282   5.141
   968G11  C09F66525   6.781   7.369   5.157
   968G11  O00A66526   6.760   7.444   5.048
   968G11  C09P66527   6.659   7.531   5.045
   968G11  H00P66528   6.677   7.618   4.984
   968G11  C09O66529   6.546   7.518   5.132
   968G11  C09D66530   6.563   7.440   5.254
   968G11  C09C66531   6.472   7.430   5.366
   968G11  C09N66532   6.329   7.465   5.385
   968G11  C09T66533   6.250   7.525   5.283
   968G11  C09S66534   6.296   7.572   5.152
   968G11  C0CP66535   6.169   7.607   5.090
   968G11  C0CN66536   6.054   7.579   5.168
   968G11  C0CO66537   5.928   7.606   5.106
   968G11  H01466538   5.833   7.576   5.147
   968G11  C0CZ66539   5.924   7.690   4.990
   968G11  H01566540   5.827   7.715   4.948
   968G11  C0D066541   6.047   7.729   4.925
   968G11  C0G566542   6.061   7.831   4.822
   968G11  H01F66543   5.976   7.888   4.786
   968G11  C0G466544   6.178   7.855   4.766
   968G11  H01G66545   6.175   7.932   4.690
   968G11  O00H66546   6.305   7.807   4.808
   968G11  C0D266547   6.298   7.720   4.915
   968G11  C09V66548   6.415   7.660   4.969
   968G11  H00Q66549   6.503   7.693   4.916
   968G11  C0D166550   6.173   7.686   4.974
   968G11  C09R66551   6.418   7.580   5.091
   968G11  C09H66552   6.934   7.177   5.223
   968G11  C09E66553   6.686   7.366   5.265
   968G11  C09B66554   6.498   7.359   5.477
   968G11  C08Z66555   6.688   7.071   5.469
   968G11  C08O66556   6.448   6.947   5.536
   968G11  C09A66557   6.387   7.332   5.559
   968G11  C08S66558   6.146   7.073   5.526
   968G11  C09966559   6.277   7.401   5.503
   968G11  C09U66560   6.101   7.526   5.293
   968G11  C0BO66561   5.669   7.597   5.518
   968G11  C0CL66562   5.901   7.310   5.532
   968G11  C0D366563   5.783   7.123   5.635
   968G11  C0D566564   5.552   7.016   5.766
   968G11  C0BR66565   5.564   7.418   5.638
   968G11  C0BQ66566   5.561   7.545   5.586
   968G11  C0BL66567   5.538   7.798   5.473
   968G11  C0AF66568   5.309   7.948   5.508
   968G11  C0BH66569   5.226   7.648   5.702
   968G11  C0BG66570   5.134   7.608   5.801
   968G11  C0BD66571   5.007   7.809   5.766
   968G11  C0AG66572   5.190   8.015   5.526
   968G11  C0AI66573   5.078   8.225   5.493
   968G11  C0AV66574   4.916   8.411   5.599
   968G11  C0BB66575   4.795   8.103   5.761
   968G11  O00C66576   4.785   8.460   5.798
   968G11  C0BC66577   4.740   8.107   5.881
   968G11  C0B966578   4.904   7.896   5.799
   968G11  O00E66579   4.785   7.727   6.101
   968G11  C0CA66580   4.775   7.602   6.154
   968G11  O00F66581   4.697   7.581   6.249
   968G11  C0BF66582   5.029   7.693   5.838
   968G11  C0C566583   4.860   7.503   6.093
   968G11  C0C466584   4.853   7.370   6.146
   968G11  H01166585   4.780   7.350   6.223
   968G11  C0C866586   5.135   7.476   5.856
   968G11  C0C266587   4.943   7.272   6.092
   968G11  C0C366588   4.955   7.134   6.134
   968G11  C0DY66589   4.887   7.064   6.236
   968G11  H01666590   4.811   7.101   6.301
   968G11  C0DX66591   4.942   6.926   6.234
   968G11  C0DW66592   4.912   6.834   6.341
   968G11  C0BY66593   5.237   7.267   5.871
   968G11  C0DB66594   5.044   7.044   6.079
   968G11  C0CC66595   5.331   7.043   5.866
   968G11  C0D766596   5.308   6.771   5.916
   968G11  C0DZ66597   5.034   6.910   6.129
   968G11  C0DM66598   5.202   6.523   5.943
   968G11  C0DQ66599   4.977   6.620   6.202
   968G11  C0DV66600   4.919   6.693   6.306
   968G11  C0E066601   4.854   6.847   6.477
   968G11  C0FO66602   4.597   6.618   6.573
   968G11  C0E366603   4.732   6.925   6.524
   968G11  H01766604   4.695   7.012   6.471
   968G11  C0GV66605   4.482   6.692   6.595
   968G11  C0ES66606   4.590   6.499   6.498
   968G11  C0GQ66607   4.219   6.480   6.466
   968G11  C0FJ66608   4.287   6.191   6.255
   968G11  C0ED66609   4.556   6.256   6.328
   968G11  C0ER66610   4.596   5.915   6.307
   968G11  C0EP66611   4.803   5.900   6.215
   968G11  C0E666612   4.800   6.284   6.277
   968G11  C0DE66613   5.035   6.274   6.066
   968G11  C0EA66614   5.035   5.883   6.104
   968G11  C0DF66615   5.105   6.218   5.959
   968G11  C08066616   5.327   5.930   5.948
   968G11  C0DO66617   5.239   6.265   5.931
   968G11  C0DJ66618   5.501   6.326   5.861
   968G11  C07K66619   5.577   5.967   5.838
   968G11  C07W66620   5.722   6.296   5.791
   968G11  C08366621   5.938   6.135   5.734
   968G11  C07J66622   5.690   5.884   5.809
   968G11  C06O66623   5.906   5.720   5.747
   968G11  C06M66624   6.030   5.916   5.695
   978G11  C07166625   2.056   3.954   9.155
   978G11  C07L66626   1.996   4.062   9.221
   978G11  C07M66627   1.861   4.073   9.220
   978G11  C07Y66628   1.799   4.186   9.285
   978G11  C08166629   1.872   4.286   9.363
   978G11  C08266630   1.801   4.403   9.409
   978G11  C0DI66631   1.855   4.523   9.485
   978G11  C0DH66632   1.986   4.562   9.531
   978G11  C0DG66633   1.973   4.682   9.609
   978G11  C0E966634   2.053   4.798   9.623
   978G11  C0E866635   1.957   4.906   9.637
   978G11  C0E766636   1.990   5.047   9.676
   978G11  C0EB66637   2.116   5.093   9.727
   978G11  C0EF66638   2.161   5.220   9.784
   978G11  C0EE66639   2.144   5.344   9.732
   978G11  C0FD66640   2.252   5.418   9.680
   978G11  C0FE66641   2.382   5.375   9.656
   978G11  H01B66642   2.399   5.269   9.661
   978G11  C0FF66643   2.483   5.456   9.616
   978G11  H01A66644   2.583   5.417   9.602
   978G11  C0FG66645   2.456   5.592   9.610
   978G11  H01866646   2.526   5.667   9.578
   978G11  C0FH66647   2.322   5.643   9.617
   978G11  C0FI66648   2.288   5.777   9.588
   978G11  H01966649   2.364   5.833   9.535
   978G11  O00K66650   2.165   5.830   9.605
   978G11  C0FL66651   2.067   5.739   9.641
   978G11  C0FK66652   2.092   5.599   9.668
   978G11  C0FM66653   1.989   5.517   9.705
   978G11  C0FN66654   1.855   5.572   9.719
   978G11  C0FP66655   1.830   5.704   9.696
   978G11  C0GO66656   1.708   5.767   9.704
   978G11  C0GN66657   1.673   5.885   9.645
   978G11  C0GR66658   1.778   5.959   9.590
   978G11  C0GS66659   1.745   6.077   9.520
   978G11  H01Q66660   1.829   6.131   9.480
   978G11  C0GT66661   1.618   6.117   9.500
   978G11  H01O66662   1.595   6.207   9.445
   978G11  C0GU66663   1.511   6.035   9.548
   978G11  H01P66664   1.413   6.078   9.543
   978G11  O00L66665   1.906   5.917   9.613
   978G11  C0GM66666   1.534   5.916   9.623
   978G11  C0GL66667   1.435   5.821   9.668
   978G11  H01R66668   1.335   5.842   9.633
   978G11  C0GK66669   1.469   5.709   9.746
   978G11  C0GP66670   1.402   5.588   9.783
   978G11  C0E266671   1.504   5.507   9.853
   978G11  C0E166672   1.467   5.370   9.833
   978G11  C0DU66673   1.548   5.268   9.771
   978G11  C0DT66674   1.685   5.255   9.753
   978G11  C0E466675   1.777   5.360   9.757
   978G11  C0E566676   1.898   5.298   9.724
   978G11  C0DS66677   1.744   5.137   9.707
   978G11  C0DR66678   1.656   5.036   9.660
   978G11  C0DD66679   1.682   4.917   9.607
   978G11  C0DC66680   1.551   4.858   9.572
   978G11  C0DP66681   1.443   4.950   9.593
   978G11  C0DA66682   1.300   4.935   9.547
   978G11  C0D966683   1.232   4.822   9.471
   978G11  C0CR66684   1.090   4.839   9.439
   978G11  C0C066685   1.017   4.958   9.460
   978G11  C0BZ66686   0.886   4.989   9.433
   978G11  C0C166687   0.827   5.109   9.462
   978G11  C0C766688   0.689   5.127   9.444
   978G11  C0C666689   0.623   5.250   9.479
   978G11  C0C966690   0.489   5.261   9.455
   978G11  C0B866691   0.423   5.384   9.493
   978G11  C0B766692   0.284   5.397   9.471
   978G11  C0B666693   0.193   5.506   9.518
   978G11  C0B566694   0.198   5.573   9.644
   978G11  H00Z66695   0.284   5.581   9.709
   978G11  C0B466696   0.056   5.620   9.662
   978G11  H01066697   0.012   5.661   9.752
   978G11  C0B366698  -0.024   5.590   9.552
   978G11  C0AP66699  -0.144   5.508   9.555
   978G11  C0AQ66700  -0.125   5.409   9.456
   978G11  C0AR66701  -0.201   5.287   9.463
   978G11  C0AS66702  -0.134   5.189   9.392
   978G11  C0AT66703   0.000   5.197   9.348
   978G11  C0BA66704   0.077   5.304   9.377
   978G11  C0AU66705   0.066   5.079   9.310
   978G11  C0BE66706   0.206   5.066   9.315
   978G11  C0BI66707   0.264   4.941   9.299
   978G11  C0BJ66708   0.186   4.828   9.277
   978G11  C0BK66709   0.245   4.707   9.254
   978G11  C0BW66710   0.387   4.700   9.250
   978G11  C0BV66711   0.465   4.809   9.291
   978G11  C0BU66712   0.604   4.794   9.303
   978G11  C0BX66713   0.678   4.900   9.349
   978G11  C0BT66714   0.663   4.675   9.276
   978G11  C0CD66715   0.800   4.662   9.284
   978G11  C0CB66716   0.877   4.764   9.344
   978G11  C0CE66717   0.855   4.542   9.246
   978G11  C0CK66718   0.779   4.437   9.195
   978G11  C0BS66719   0.641   4.449   9.185
   978G11  C0CJ66720   0.563   4.351   9.119
   978G11  C0BP66721   0.426   4.362   9.118
   978G11  C0CI66722   0.349   4.270   9.044
   978G11  C0CH66723   0.205   4.281   9.056
   978G11  H01266724   0.149   4.206   9.003
   978G11  C0BN66725   0.146   4.384   9.137
   978G11  C0CG66726   0.008   4.378   9.167
   978G11  C0CF66727  -0.067   4.256   9.150
   978G11  H01366728  -0.017   4.162   9.130
   978G11  O00G66729  -0.201   4.261   9.165
   978G11  C0AA66730  -0.258   4.373   9.221
   978G11  C0A966731  -0.381   4.363   9.278
   978G11  H00U66732  -0.438   4.273   9.266
   978G11  C0A866733  -0.442   4.462   9.356
   978G11  H00V66734  -0.543   4.441   9.387
   978G11  C0A766735  -0.376   4.584   9.379
   978G11  C0A666736  -0.247   4.608   9.311
   978G11  C0A566737  -0.170   4.725   9.308
   978G11  C0A466738  -0.221   4.851   9.361
   978G11  C0A366739  -0.335   4.899   9.431
   978G11  C0A266740  -0.418   4.812   9.501
   978G11  C0A166741  -0.489   4.857   9.619
   978G11  C0A066742  -0.495   4.972   9.710
   978G11  C09Z66743  -0.574   4.954   9.825
   978G11  C09Y66744  -0.585   5.062   9.923
   978G11  H00Y66745  -0.637   5.047  10.017
   978G11  C09X66746  -0.516   5.180   9.900
   978G11  C09W66747  -0.525   5.279  10.007
   978G11  H00R66748  -0.579   5.263  10.099
   978G11  C0AX66749  -0.452   5.398  10.005
   978G11  H00S66750  -0.455   5.462  10.092
   978G11  C0AW66751  -0.374   5.412   9.892
   978G11  H00T66752  -0.308   5.498   9.890
   978G11  C0AN66753  -0.370   5.326   9.777
   978G11  C0AO66754  -0.304   5.352   9.656
   978G11  C0AM66755  -0.440   5.199   9.786
   978G11  C0B266756  -0.646   4.834   9.867
   978G11  O00D66757  -0.710   4.821   9.971
   978G11  C0B166758  -0.646   4.725   9.771
   978G11  H00W66759  -0.688   4.630   9.799
   978G11  C0AL66760  -0.437   5.101   9.682
   978G11  C0AK66761  -0.362   5.134   9.562
   978G11  C0B066762  -0.570   4.739   9.654
   978G11  C0AZ66763  -0.537   4.633   9.564
   978G11  H00X66764  -0.578   4.534   9.577
   978G11  C0AJ66765  -0.312   5.032   9.471
   978G11  C0AH66766  -0.144   4.964   9.326
   978G11  C0AE66767  -0.034   4.722   9.281
   978G11  C0AD66768   0.028   4.607   9.239
   978G11  C0AY66769  -0.438   4.673   9.469
   978G11  C0AB66770  -0.185   4.496   9.249
   978G11  C0AC66771  -0.050   4.493   9.218
   978G11  C0BM66772   0.222   4.483   9.185
   978G11  C0CM66773   0.412   4.179   8.961
   978G11  C09M66774   0.542   4.141   8.997
   978G11  C09866775   0.564   4.001   8.971
   978G11  C08R66776   0.686   3.924   8.963
   978G11  C08Q66777   0.675   3.786   8.925
   978G11  C08P66778   0.760   3.681   8.866
   978G11  C08Y66779   0.691   3.584   8.787
   978G11  C09766780   0.555   3.606   8.755
   978G11  C09666781   0.519   3.568   8.628
   978G11  C09066782   0.630   3.476   8.594
   978G11  C09566783   0.656   3.426   8.465
   978G11  C09466784   0.769   3.341   8.430
   978G11  C08J66785   0.890   3.311   8.503
   978G11  C08I66786   0.986   3.290   8.402
   978G11  C08H66787   1.112   3.322   8.454
   978G11  C08G66788   1.090   3.401   8.583
   978G11  C08F66789   1.173   3.472   8.683
   978G11  C08E66790   1.313   3.440   8.702
   978G11  C05966791   1.382   3.332   8.648
   978G11  C05866792   1.520   3.306   8.682
   978G11  C05766793   1.607   3.210   8.627
   978G11  C05666794   1.538   3.136   8.529
   978G11  C05566795   1.403   3.137   8.502
   978G11  C05466796   1.372   3.065   8.389
   978G11  C05366797   1.503   3.028   8.335
   978G11  C05266798   1.531   2.982   8.201
   978G11  C05166799   1.423   2.964   8.102
   978G11  C05U66800   1.286   3.021   8.104
   978G11  C05T66801   1.217   3.100   8.200
   978G11  C06K66802   1.079   3.081   8.169
   978G11  H00J66803   0.994   3.097   8.234
   978G11  C06L66804   1.061   3.012   8.044
   978G11  H00I66805   0.970   2.994   7.990
   978G11  C05V66806   1.195   2.975   8.009
   978G11  C06J66807   1.223   2.901   7.898
   978G11  H00K66808   1.147   2.876   7.826
   978G11  C05X66809   1.359   2.859   7.872
   978G11  C06I66810   1.405   2.786   7.759
   978G11  H00L66811   1.322   2.758   7.695
   978G11  C04Z66812   1.535   2.759   7.728
   978G11  C06H66813   1.571   2.694   7.602
   978G11  H00H66814   1.496   2.661   7.532
   978G11  C04Y66815   1.707   2.684   7.578
   978G11  C06G66816   1.748   2.614   7.459
   978G11  O00966817   1.666   2.556   7.389
   978G11  O00866818   1.876   2.621   7.423
   978G11  C04P66819   1.971   2.680   7.504
   978G11  C04J66820   2.111   2.683   7.469
   978G11  C04Q66821   2.176   2.631   7.360
   978G11  H00E66822   2.111   2.565   7.305
   978G11  C04M66823   2.312   2.658   7.320
   978G11  C04R66824   2.370   2.613   7.200
   978G11  H00F66825   2.315   2.568   7.118
   978G11  C04S66826   2.496   2.648   7.177
   978G11  H00G66827   2.530   2.622   7.078
   978G11  O00766828   2.584   2.721   7.261
   978G11  C03V66829   2.527   2.756   7.377
   978G11  C03U66830   2.597   2.841   7.470
   978G11  O00666831   2.721   2.878   7.433
   978G11  C03F66832   2.801   2.946   7.514
   978G11  C03E66833   2.753   2.976   7.645
   978G11  C03D66834   2.624   2.945   7.685
   978G11  C03C66835   2.577   2.982   7.811
   978G11  C03B66836   2.665   3.057   7.889
   978G11  C03A66837   2.631   3.085   8.018
   978G11  C03966838   2.501   3.061   8.067
   978G11  C03866839   2.499   3.128   8.202
   978G11  C03766840   2.631   3.177   8.212
   978G11  C03666841   2.672   3.244   8.323
   978G11  C02R66842   2.790   3.301   8.350
   978G11  C03566843   2.763   3.369   8.470
   978G11  C03R66844   2.645   3.335   8.524
   978G11  C03S66845   2.573   3.421   8.614
   978G11  C04966846   2.437   3.397   8.625
   978G11  C04866847   2.382   3.300   8.538
   978G11  C03P66848   2.445   3.232   8.423
   978G11  C04766849   2.249   3.280   8.565
   978G11  C04666850   2.163   3.191   8.506
   978G11  C04566851   2.183   3.108   8.398
   978G11  C03T66852   2.283   3.099   8.299
   978G11  C04466853   2.244   3.015   8.195
   978G11  C04366854   2.119   2.969   8.231
   978G11  C04266855   2.046   2.920   8.119
   978G11  C04166856   2.150   2.921   8.015
   978G11  C04066857   2.133   2.865   7.885
   978G11  C03Z66858   2.230   2.857   7.784
   978G11  C04H66859   2.155   2.805   7.673
   978G11  C04G66860   2.020   2.793   7.708
   978G11  C03N66861   2.365   2.887   7.756
   978G11  C03Y66862   2.415   2.847   7.632
   978G11  C03X66863   2.341   2.771   7.537
   978G11  C04F66864   2.004   2.834   7.829
   978G11  C04E66865   1.870   2.837   7.878
   978G11  C04O66866   1.763   2.795   7.787
   978G11  C04D66867   1.822   2.882   7.999
   978G11  C04V66868   1.683   2.899   8.024
   978G11  C04W66869   1.581   2.858   7.936
   978G11  C04C66870   1.898   2.929   8.105
   978G11  C04L66871   1.797   2.968   8.206
   978G11  C04U66872   1.824   3.007   8.345
   978G11  C05Q66873   1.732   3.053   8.438
   978G11  C05P66874   1.795   3.126   8.536
   978G11  C04T66875   1.929   3.124   8.513
   978G11  C04B66876   1.952   3.051   8.398
   978G11  C03M66877   2.279   2.979   8.059
   978G11  C04A66878   2.080   3.036   8.343
   978G11  C05H66879   2.039   3.202   8.567
   978G11  C05G66880   2.046   3.299   8.670
   978G11  C05F66881   1.942   3.342   8.751
   978G11  C05E66882   1.934   3.456   8.830
   978G11  C05L66883   2.024   3.556   8.875
   978G11  C05K66884   2.162   3.552   8.844
   978G11  C05J66885   2.230   3.465   8.747
   978G11  C06666886   2.238   3.657   8.910
   978G11  C06566887   2.176   3.755   8.991
   978G11  C06466888   2.037   3.758   9.011
   978G11  C06N66889   2.253   3.858   9.051
   978G11  C06966890   2.389   3.868   9.024
   978G11  C06P66891   2.468   3.974   9.077
   978G11  C06R66892   2.604   3.989   9.044
   978G11  C06B66893   2.666   3.903   8.960
   978G11  C06S66894   2.792   3.933   8.905
   978G11  C02G66895   2.848   3.850   8.810
   978G11  C02F66896   2.969   3.878   8.760
   978G11  C02766897   3.035   4.001   8.796
   978G11  C02666898   3.156   4.038   8.732
   978G11  C00E66899   3.208   4.161   8.757
   978G11  C00D66900   3.319   4.202   8.687
   978G11  C00C66901   3.376   4.324   8.716
   978G11  C00B66902   3.322   4.417   8.799
   978G11  C01566903   3.211   4.373   8.871
   978G11  C07F66904   3.152   4.461   8.960
   978G11  C07E66905   3.037   4.422   9.028
   978G11  C06W66906   2.982   4.297   9.009
   978G11  C06V66907   3.039   4.205   8.924
   978G11  C06X66908   2.865   4.260   9.067
   978G11  C07B66909   2.811   4.342   9.163
   978G11  C07C66910   2.873   4.465   9.199
   978G11  C0FU66911   2.808   4.548   9.284
   978G11  C0F766912   2.867   4.673   9.307
   978G11  C0F666913   2.805   4.761   9.399
   978G11  C0F866914   2.863   4.884   9.426
   978G11  C0F966915   2.804   4.974   9.514
   978G11  C0FA66916   2.869   5.092   9.548
   978G11  C0FZ66917   2.985   5.123   9.481
   978G11  C0G066918   3.043   5.249   9.507
   978G11  C0GD66919   3.001   5.328   9.613
   978G11  C0FC66920   2.888   5.285   9.687
   978G11  C0GH66921   2.852   5.351   9.810
   978G11  C0EY66922   2.733   5.315   9.872
   978G11  C0EX66923   2.677   5.393   9.975
   978G11  C0EW66924   2.546   5.369  10.019
   978G11  C0FR66925   2.484   5.448  10.116
   978G11  H01D66926   2.388   5.431  10.164
   978G11  C0FS66927   2.557   5.546  10.174
   978G11  H01C66928   2.511   5.614  10.244
   978G11  C0GJ66929   2.690   5.575  10.130
   978G11  H01N66930   2.744   5.650  10.185
   978G11  C0EV66931   2.473   5.269   9.958
   978G11  C0FT66932   2.333   5.287   9.948
   978G11  H01E66933   2.283   5.369   9.998
   978G11  C0EU66934   2.532   5.180   9.872
   978G11  C0ET66935   2.460   5.071   9.816
   978G11  C0EI66936   2.504   4.991   9.713
   978G11  C0F166937   2.630   5.017   9.672
   978G11  C0F066938   2.702   5.130   9.713
   978G11  C0EH66939   2.417   4.897   9.648
   978G11  C0EG66940   2.273   4.899   9.663
   978G11  C0EJ66941   2.479   4.800   9.568
   978G11  C0F366942   2.619   4.818   9.535
   978G11  C0EK66943   2.414   4.684   9.527
   978G11  C0EL66944   2.270   4.674   9.549
   978G11  C0EM66945   2.220   4.543   9.509
   978G11  C0EN66946   2.304   4.442   9.463
   978G11  C07I66947   2.236   4.332   9.421
   978G11  C07466948   2.293   4.234   9.338
   978G11  C07366949   2.206   4.148   9.276
   978G11  C07266950   2.271   4.052   9.192
   978G11  C07566951   2.425   4.257   9.306
   978G11  C07666952   2.494   4.370   9.350
   978G11  C07866953   2.625   4.394   9.304
   978G11  C07G66954   2.484   4.170   9.214
   978G11  C07066955   2.611   4.192   9.173
   978G11  C07Z66956   2.096   4.360   9.433
   978G11  C07766957   2.433   4.466   9.423
   978G11  C0EO66958   2.487   4.586   9.456
   978G11  C0F466959   2.617   4.608   9.417
   978G11  C0EQ66960   2.319   5.067   9.838
   978G11  C0FQ66961   2.749   5.496  10.029
   978G11  C0GI66962   2.879   5.519   9.975
   978G11  H01L66963   2.927   5.610  10.007
   978G11  C0EZ66964   2.662   5.208   9.824
   978G11  C0GG66965   2.926   5.457   9.859
   978G11  C0GF66966   3.044   5.498   9.784
   978G11  H01M66967   3.095   5.583   9.828
   978G11  C0GE66968   3.076   5.438   9.661
   978G11  H01K66969   3.173   5.462   9.620
   978G11  O00J66970   3.147   5.302   9.431
   978G11  C0GA66971   3.183   5.227   9.318
   978G11  C0G966972   3.278   5.285   9.229
   978G11  H01H66973   3.317   5.384   9.250
   978G11  C0G866974   3.318   5.212   9.111
   978G11  C0G766975   3.402   5.262   9.008
   978G11  H01I66976   3.428   5.366   9.020
   978G11  O00I66977   3.410   5.199   8.884
   978G11  C0G666978   3.381   5.067   8.885
   978G11  H01J66979   3.406   5.021   8.791
   978G11  C02D66980   3.311   5.003   8.990
   978G11  C02C66981   3.275   4.867   8.983
   978G11  C01766982   3.336   4.770   8.894
   978G11  C01666983   3.299   4.635   8.889
   978G11  O00166984   3.444   4.811   8.815
   978G11  C01866985   3.499   4.735   8.718
   978G11  C00966986   3.471   4.595   8.716
   978G11  C00866987   3.530   4.496   8.628
   978G11  C00766988   3.623   4.495   8.519
   978G11  C00666989   3.667   4.614   8.457
   978G11  C00566990   3.738   4.621   8.335
   978G11  C00466991   3.781   4.509   8.250
   978G11  C00366992   3.741   4.369   8.237
   978G11  C00266993   3.799   4.286   8.131
   978G11  C00P66994   3.745   4.157   8.107
   978G11  C00O66995   3.789   4.076   8.001
   978G11  C00N66996   3.730   3.952   7.971
   978G11  C01066997   3.768   3.884   7.859
   978G11  C01166998   3.703   3.768   7.819
   978G11  C01Q66999   3.732   3.703   7.701
   978G11  C01U67000   3.846   3.743   7.629
   978G11  C01267001   3.913   3.861   7.671
   978G11  H00067002   3.991   3.897   7.606
   978G11  C01V67003   3.878   3.664   7.524
   978G11  H00767004   3.962   3.696   7.464
   978G11  O00567005   3.802   3.566   7.469
   978G11  C01W67006   3.682   3.543   7.529
   978G11  C03167007   3.600   3.443   7.478
   978G11  C03267008   3.474   3.418   7.536
   978G11  H00A67009   3.405   3.354   7.483
   978G11  C03367010   3.435   3.485   7.657
   978G11  H00B67011   3.337   3.477   7.701
   978G11  C01O67012   3.524   3.573   7.716
   978G11  C01N67013   3.507   3.612   7.850
   978G11  C01M67014   3.394   3.563   7.939
   978G11  C01L67015   3.283   3.465   7.959
   978G11  C01K67016   3.230   3.488   8.087
   978G11  C01Y67017   3.115   3.432   8.146
   978G11  C02I67018   3.039   3.343   8.075
   978G11  C02N67019   2.920   3.302   8.137
   978G11  C02M67020   2.840   3.211   8.062
   978G11  C02L67021   2.875   3.176   7.927
   978G11  C02K67022   2.999   3.217   7.876
   978G11  C02U67023   3.050   3.163   7.754
   978G11  C02V67024   2.964   3.086   7.674
   978G11  C03H67025   3.003   3.061   7.540
   978G11  H00C67026   3.089   3.108   7.496
   978G11  C02W67027   3.182   3.174   7.718
   978G11  C02X67028   3.250   3.268   7.789
   978G11  C02Y67029   3.382   3.230   7.760
   978G11  H00867030   3.464   3.282   7.807
   978G11  C02Z67031   3.385   3.130   7.658
   978G11  O00467032   3.477   3.063   7.609
   978G11  O00367033   3.257   3.096   7.638
   978G11  C02J67034   3.087   3.301   7.948
   978G11  C01Z67035   3.087   3.488   8.270
   978G11  C02067036   3.161   3.588   8.329
   978G11  C01I67037   3.275   3.633   8.276
   978G11  C01H67038   3.344   3.746   8.308
   978G11  C00K67039   3.440   3.801   8.223
   978G11  C01S67040   3.470   3.740   8.104
   978G11  C01467041   3.560   3.784   8.013
   978G11  C00J67042   3.497   3.920   8.251
   978G11  C00I67043   3.462   3.987   8.367
   978G11  C00H67044   3.359   3.940   8.450
   978G11  C00G67045   3.316   4.005   8.557
   978G11  C00S67046   3.522   4.113   8.390
   978G11  C00T67047   3.471   4.172   8.503
   978G11  C00U67048   3.519   4.300   8.522
   978G11  C00R67049   3.606   4.178   8.302
   978G11  C00L67050   3.592   3.975   8.165
   978G11  C02867051   3.302   3.821   8.417
   978G11  C02367052   3.192   3.765   8.486
   978G11  C02467053   3.141   3.841   8.589
   978G11  C02167054   3.124   3.654   8.444
   978G11  C02267055   3.010   3.622   8.505
   978G11  C02H67056   2.957   3.695   8.615
   978G11  C03067057   2.831   3.665   8.666
   978G11  C03467058   2.768   3.553   8.621
   978G11  C02P67059   2.940   3.512   8.456
   978G11  C02B67060   2.972   3.446   8.335
   978G11  C01J67061   3.306   3.586   8.149
   978G11  C01X67062   3.214   3.350   7.895
   978G11  C01T67063   3.389   3.639   8.060
   978G11  H00967064   3.629   3.390   7.388
   978G11  C01P67065   3.643   3.606   7.650
   978G11  C01R67066   3.590   3.721   7.894
   978G11  C00Z67067   3.881   3.933   7.787
   978G11  O00067068   3.956   4.047   7.826
   978G11  C00M67069   3.626   3.902   8.049
   978G11  C00Y67070   3.898   4.128   7.919
   978G11  C01367071   3.948   4.255   7.945
   978G11  H00167072   4.029   4.292   7.883
   978G11  C00Q67073   3.651   4.103   8.197
   978G11  C00167074   3.895   4.342   8.044
   978G11  C00067075   3.932   4.474   8.067
   978G11  H00667076   3.999   4.525   7.999
   978G11  C00W67077   3.651   4.310   8.322
   978G11  C01G67078   3.882   4.554   8.169
   978G11  H00567079   3.919   4.655   8.163
   978G11  C01C67080   3.757   4.757   8.302
   978G11  H00267081   3.796   4.811   8.217
   978G11  C01B67082   3.714   4.830   8.416
   978G11  C01D67083   3.704   4.970   8.425
   978G11  H00367084   3.754   5.031   8.352
   978G11  C01E67085   3.644   5.017   8.536
   978G11  H00467086   3.643   5.123   8.558
   978G11  O00267087   3.581   4.935   8.630
   978G11  C01A67088   3.647   4.747   8.507
   978G11  C00V67089   3.611   4.369   8.448
   978G11  C01967090   3.580   4.804   8.618
   978G11  C02E67091   3.186   4.813   9.076
   978G11  C0FX67092   3.135   4.891   9.178
   978G11  C0FW67093   3.036   4.838   9.259
   978G11  C0GB67094   3.181   5.023   9.189
   978G11  C0G367095   3.146   4.677   9.069
   978G11  C07H67096   3.038   4.633   9.147
   978G11  C0GC67097   3.269   5.081   9.098
   978G11  C0G267098   3.135   5.098   9.298
   978G11  C0G167099   3.034   5.047   9.378
   978G11  C0FB67100   2.820   5.172   9.648
   978G11  C0F267101   2.681   4.938   9.572
   978G11  C0FY67102   2.977   4.921   9.356
   978G11  C0F567103   2.683   4.726   9.452
   978G11  C0FV67104   2.984   4.711   9.243
   978G11  C07967105   2.686   4.514   9.338
   978G11  C07A67106   2.683   4.306   9.217
   978G11  C06Y67107   2.796   4.145   9.031
   978G11  C07D67108   2.985   4.505   9.130
   978G11  C01F67109   3.199   4.589   8.975
   978G11  C00A67110   3.366   4.552   8.800
   978G11  C00X67111   3.472   4.372   8.631
   978G11  C00F67112   3.374   4.124   8.587
   978G11  C02967113   3.151   4.247   8.851
   978G11  C02567114   3.208   3.960   8.627
   978G11  C06U67115   2.977   4.087   8.892
   978G11  C02A67116   3.024   3.808   8.654
   978G11  C05Y67117   2.775   3.737   8.771
   978G11  C05Z67118   2.645   3.712   8.811
   978G11  C06067119   2.579   3.603   8.756
   978G11  C06267120   2.444   3.580   8.793
   978G11  C06T67121   2.854   4.057   8.945
   978G11  C06A67122   2.589   3.794   8.907
   978G11  C06Z67123   2.672   4.109   9.082
   978G11  C06Q67124   2.408   4.066   9.162
   978G11  C06867125   2.450   3.778   8.934
   978G11  C06767126   2.380   3.671   8.881
   978G11  C06367127   1.962   3.660   8.949
   978G11  C06C67128   1.817   3.674   8.958
   978G11  C06D67129   1.734   3.581   8.909
   978G11  C06E67130   1.598   3.591   8.892
   978G11  C07Q67131   1.539   3.707   8.938
   978G11  C07P67132   1.620   3.798   9.007
   978G11  C07T67133   1.564   3.909   9.065
   978G11  C07U67134   1.644   3.998   9.141
   978G11  C07V67135   1.585   4.107   9.199
   978G11  C08467136   1.447   4.129   9.176
   978G11  C08C67137   1.373   4.040   9.098
   978G11  C08B67138   1.238   4.058   9.086
   978G11  C08A67139   1.163   3.960   9.025
   978G11  C08967140   1.212   3.854   8.963
   978G11  C08867141   1.128   3.762   8.896
   978G11  C08767142   1.189   3.651   8.837
   978G11  C08667143   1.324   3.635   8.843
   978G11  C08X67144   0.988   3.773   8.901
   978G11  C08T67145   0.932   3.899   8.950
   978G11  C08D67146   1.350   3.835   8.973
   978G11  C08U67147   1.024   3.981   9.019
   978G11  C08V67148   0.970   4.100   9.068
   978G11  C0CY67149   1.041   4.193   9.133
   978G11  C0CX67150   0.974   4.304   9.177
   978G11  C0CW67151   1.052   4.398   9.236
   978G11  C0CV67152   1.186   4.380   9.259
   978G11  C0D467153   1.251   4.267   9.210
   978G11  C0CU67154   1.262   4.475   9.324
   978G11  C0CT67155   1.206   4.598   9.368
   978G11  C0CS67156   1.067   4.615   9.338
   978G11  C0D667157   1.392   4.453   9.330
   978G11  C0EC67158   1.457   4.335   9.283
   978G11  C07X67159   1.591   4.312   9.314
   978G11  C0DL67160   1.463   4.545   9.402
   978G11  C0DK67161   1.596   4.525   9.426
   978G11  C0DN67162   1.637   4.636   9.495
   978G11  C0D867163   1.418   4.668   9.462
   978G11  C08W67164   0.833   4.104   9.039
   978G11  C0CQ67165   0.763   4.221   9.084
   978G11  C09367166   1.178   4.173   9.144
   978G11  C09267167   1.382   4.245   9.221
   978G11  C08567168   1.426   3.928   9.045
   978G11  C07S67169   1.407   3.724   8.917
   978G11  C06F67170   1.523   3.497   8.822
   978G11  C07O67171   1.759   3.784   9.016
   978G11  C07N67172   1.839   3.875   9.085
   978G11  C05D67173   1.798   3.463   8.867
   978G11  C05C67174   1.721   3.376   8.792
   978G11  C05N67175   1.806   3.289   8.728
   978G11  C05M67176   2.177   3.354   8.664
   978G11  C05I67177   2.368   3.480   8.721
   978G11  C06167178   2.644   3.527   8.665
   978G11  C02Q67179   2.831   3.475   8.519
   978G11  C02O67180   2.898   3.348   8.273
   978G11  C03Q67181   2.581   3.264   8.426
   978G11  C03O67182   2.403   3.154   8.309
   978G11  C03L67183   2.401   2.995   7.991
   978G11  C02S67184   2.712   3.166   8.098
   978G11  C02T67185   2.794   3.098   7.850
   978G11  C03K67186   2.443   2.948   7.852
   978G11  C03I67187   2.838   3.055   7.724
   978G11  C03G67188   2.923   2.979   7.466
   978G11  H00D67189   2.962   2.965   7.367
   978G11  C03J67190   2.541   2.881   7.595
   978G11  C03W67191   2.392   2.727   7.413
   978G11  C04I67192   2.206   2.755   7.554
   978G11  C04K67193   1.934   2.730   7.625
   978G11  C04N67194   1.801   2.734   7.666
   978G11  C04X67195   1.630   2.803   7.818
   978G11  C05067196   1.454   2.895   7.974
   978G11  C05W67197   1.665   2.954   8.150
   978G11  C05S67198   1.270   3.143   8.328
   978G11  C05R67199   1.594   3.064   8.431
   978G11  C05O67200   1.741   3.204   8.635
   978G11  C05B67201   1.580   3.391   8.766
   978G11  C05A67202   1.330   3.251   8.535
   978G11  C07R67203   1.386   3.523   8.787
   978G11  C08N67204   1.107   3.568   8.760
   978G11  C08M67205   0.962   3.579   8.768
   978G11  C08L67206   0.885   3.495   8.682
   978G11  C09167207   1.228   3.245   8.435
   978G11  C09K67208   0.935   3.345   8.275
   978G11  H00M67209   0.996   3.361   8.187
   978G11  C08K67210   0.951   3.408   8.591
   978G11  C09J67211   0.795   3.364   8.294
   978G11  C09I67212   0.692   3.440   8.234
   978G11  C09L67213   0.661   3.474   8.098
   978G11  H00N67214   0.728   3.445   8.018
   978G11  C09Q67215   0.544   3.539   8.077
   978G11  H00O67216   0.516   3.561   7.975
   978G11  O00B67217   0.455   3.579   8.177
   978G11  C09G67218   0.488   3.552   8.308
   978G11  C09F67219   0.392   3.616   8.401
   978G11  O00A67220   0.292   3.676   8.328
   978G11  C09P67221   0.211   3.747   8.409
   978G11  H00P67222   0.110   3.729   8.378
   978G11  C09O67223   0.258   3.825   8.519
   978G11  C09D67224   0.356   3.753   8.600
   978G11  C09C67225   0.403   3.785   8.737
   978G11  C09N67226   0.382   3.905   8.817
   978G11  C09T67227   0.339   4.030   8.762
   978G11  C09S67228   0.261   4.046   8.641
   978G11  C0CP67229   0.230   4.183   8.644
   978G11  C0CN67230   0.275   4.250   8.757
   978G11  C0CO67231   0.259   4.387   8.764
   978G11  H01467232   0.298   4.435   8.852
   978G11  C0CZ67233   0.196   4.451   8.656
   978G11  H01567234   0.184   4.558   8.655
   978G11  C0D067235   0.145   4.378   8.543
   978G11  C0G567236   0.073   4.438   8.429
   978G11  H01F67237   0.056   4.544   8.430
   978G11  C0G467238   0.038   4.363   8.319
   978G11  H01G67239  -0.013   4.417   8.241
   978G11  O00H67240   0.061   4.225   8.316
   978G11  C0D267241   0.119   4.167   8.424
   978G11  C09V67242   0.144   4.028   8.421
   978G11  H00Q67243   0.127   3.972   8.330
   978G11  C0D167244   0.162   4.240   8.535
   978G11  C09R67245   0.219   3.962   8.530
   978G11  C09H67246   0.596   3.470   8.340
   978G11  C09E67247   0.420   3.639   8.542
   978G11  C09B67248   0.489   3.709   8.811
   978G11  C08Z67249   0.741   3.514   8.685
   978G11  C08O67250   0.900   3.678   8.846
   978G11  C09A67251   0.536   3.774   8.928
   978G11  C08S67252   0.811   3.981   8.970
   978G11  C09967253   0.474   3.898   8.926
   978G11  C09U67254   0.343   4.151   8.837
   978G11  C0BO67255   0.362   4.475   9.168
   978G11  C0CL67256   0.625   4.242   9.063
   978G11  C0D367257   0.840   4.322   9.151
   978G11  C0D567258   0.990   4.521   9.274
   978G11  C0BR67259   0.584   4.568   9.224
   978G11  C0BQ67260   0.445   4.583   9.212
   978G11  C0BL67261   0.165   4.600   9.228
   978G11  C0AF67262   0.048   4.833   9.285
   978G11  C0BH67263   0.404   4.928   9.323
   978G11  C0BG67264   0.479   5.037   9.363
   978G11  C0BD67265   0.282   5.176   9.363
   978G11  C0AG67266  -0.008   4.960   9.298
   978G11  C0AI67267  -0.203   5.071   9.388
   978G11  C0AV67268  -0.295   5.255   9.553
   978G11  C0BB67269   0.006   5.421   9.414
   978G11  O00C67270  -0.228   5.471   9.657
   978G11  C0BC67271   0.066   5.535   9.460
   978G11  C0B967272   0.213   5.298   9.397
   978G11  O00E67273   0.495   5.484   9.551
   978G11  C0CA67274   0.631   5.482   9.561
   978G11  O00F67275   0.693   5.585   9.587
   978G11  C0BF67276   0.415   5.158   9.393
   978G11  C0C567277   0.691   5.361   9.527
   978G11  C0C467278   0.834   5.345   9.540
   978G11  H01167279   0.887   5.433   9.574
   978G11  C0C867280   0.617   5.022   9.384
   978G11  C0C267281   0.894   5.217   9.508
   978G11  C0C367282   1.028   5.186   9.540
   978G11  C0DY67283   1.124   5.265   9.604
   978G11  H01667284   1.121   5.363   9.649
   978G11  C0DX67285   1.243   5.187   9.612
   978G11  C0DW67286   1.346   5.236   9.694
   978G11  C0BY67287   0.812   4.883   9.374
   978G11  C0DB67288   1.087   5.061   9.522
   978G11  C0CC67289   1.012   4.739   9.373
   978G11  C0D767290   1.282   4.696   9.435
   978G11  C0DZ67291   1.225   5.052   9.561
   978G11  C0DM67292   1.534   4.726   9.516
   978G11  C0DQ67293   1.518   5.056   9.654
   978G11  C0DV67294   1.471   5.174   9.708
   978G11  C0E067295   1.345   5.361   9.765
   978G11  C0FO67296   1.633   5.558   9.805
   978G11  C0E367297   1.321   5.492   9.712
   978G11  H01767298   1.273   5.523   9.620
   978G11  C0GV67299   1.606   5.684   9.763
   978G11  C0ES67300   1.755   5.497   9.773
   978G11  C0GQ67301   1.934   5.787   9.651
   978G11  C0FJ67302   2.222   5.551   9.655
   978G11  C0ED67303   2.015   5.380   9.723
   978G11  C0ER67304   2.267   5.196   9.876
   978G11  C0EP67305   2.232   5.012   9.742
   978G11  C0E667306   1.888   5.151   9.694
   978G11  C0DE67307   1.817   4.853   9.620
   978G11  C0EA67308   2.199   4.792   9.607
   978G11  C0DF67309   1.840   4.718   9.608
   978G11  C08067310   2.094   4.486   9.503
   978G11  C0DO67311   1.770   4.628   9.529
   978G11  C0DJ67312   1.665   4.407   9.380
   978G11  C07K67313   2.011   4.266   9.365
   978G11  C07W67314   1.657   4.202   9.267
   978G11  C08367315   1.781   3.982   9.149
   978G11  C07J67316   2.068   4.154   9.294
   978G11  C06O67317   2.193   3.952   9.133
   978G11  C06M67318   1.978   3.859   9.088
   988G11  C07167319   3.428   0.809   5.941
   988G11  C07L67320   3.330   0.712   5.959
   988G11  C07M67321   3.287   0.631   5.854
   988G11  C07Y67322   3.194   0.528   5.874
   988G11  C08167323   3.136   0.504   5.999
   988G11  C08267324   3.040   0.400   6.011
   988G11  C0DI67325   2.958   0.358   6.124
   988G11  C0DH67326   2.955   0.395   6.261
   988G11  C0DG67327   2.850   0.330   6.332
   988G11  C0E967328   2.837   0.270   6.460
   988G11  C0E867329   2.746   0.159   6.437
   988G11  C0E767330   2.661   0.094   6.539
   988G11  C0EB67331   2.671   0.115   6.679
   988G11  C0EF67332   2.581   0.077   6.789
   988G11  C0EE67333   2.444   0.106   6.782
   988G11  C0FD67334   2.378   0.204   6.864
   988G11  C0FE67335   2.436   0.285   6.965
   988G11  H01B67336   2.535   0.258   6.999
   988G11  C0FF67337   2.366   0.392   7.027
   988G11  H01A67338   2.410   0.447   7.109
   988G11  C0FG67339   2.242   0.418   6.977
   988G11  H01867340   2.187   0.503   7.016
   988G11  C0FH67341   2.175   0.339   6.881
   988G11  C0FI67342   2.043   0.365   6.834
   988G11  H01967343   1.992   0.454   6.867
   988G11  O00K67344   1.985   0.287   6.737
   988G11  C0FL67345   2.045   0.172   6.706
   988G11  C0FK67346   2.177   0.142   6.740
   988G11  C0FM67347   2.238   0.030   6.682
   988G11  C0FN67348   2.169  -0.058   6.606
   988G11  C0FP67349   2.034  -0.040   6.591
   988G11  C0GO67350   1.955  -0.132   6.522
   988G11  C0GN67351   1.829  -0.106   6.473
   988G11  C0GR67352   1.773   0.021   6.516
   988G11  C0GS67353   1.646   0.059   6.478
   988G11  H01Q67354   1.607   0.152   6.517
   988G11  C0GT67355   1.577  -0.011   6.377
   988G11  H01O67356   1.483   0.031   6.344
   988G11  C0GU67357   1.643  -0.125   6.324
   988G11  H01P67358   1.600  -0.170   6.236
   988G11  O00L67359   1.844   0.108   6.593
   988G11  C0GM67360   1.768  -0.178   6.369
   988G11  C0GL67361   1.848  -0.285   6.311
   988G11  H01R67362   1.813  -0.331   6.220
   988G11  C0GK67363   1.969  -0.321   6.361
   988G11  C0GP67364   2.085  -0.403   6.317
   988G11  C0E267365   2.195  -0.386   6.412
   988G11  C0E167366   2.316  -0.396   6.337
   988G11  C0DU67367   2.417  -0.295   6.322
   988G11  C0DT67368   2.448  -0.189   6.414
   988G11  C0E467369   2.375  -0.147   6.522
   988G11  C0E567370   2.443  -0.050   6.589
   988G11  C0DS67371   2.547  -0.091   6.398
   988G11  C0DR67372   2.602  -0.092   6.271
   988G11  C0DD67373   2.683   0.008   6.218
   988G11  C0DC67374   2.696  -0.024   6.076
   988G11  C0DP67375   2.618  -0.140   6.033
   988G11  C0DA67376   2.593  -0.182   5.893
   988G11  C0D967377   2.655  -0.155   5.762
   988G11  C0CR67378   2.610  -0.217   5.634
   988G11  C0C067379   2.503  -0.301   5.627
   988G11  C0BZ67380   2.455  -0.370   5.518
   988G11  C0C167381   2.334  -0.440   5.525
   988G11  C0C767382   2.285  -0.497   5.407
   988G11  C0C667383   2.153  -0.552   5.407
   988G11  C0C967384   2.104  -0.609   5.295
   988G11  C0B867385   1.972  -0.658   5.295
   988G11  C0B767386   1.916  -0.715   5.182
   988G11  C0B667387   1.784  -0.764   5.154
   988G11  C0B567388   1.670  -0.689   5.197
   988G11  H00Z67389   1.669  -0.612   5.273
   988G11  C0B467390   1.569  -0.704   5.097
   988G11  H01067391   1.477  -0.651   5.082
   988G11  C0B367392   1.607  -0.805   4.997
   988G11  C0AP67393   1.625  -0.799   4.852
   988G11  C0AQ67394   1.758  -0.845   4.821
   988G11  C0AR67395   1.816  -0.802   4.701
   988G11  C0AS67396   1.953  -0.792   4.711
   988G11  C0AT67397   2.023  -0.770   4.833
   988G11  C0BA67398   1.959  -0.795   4.952
   988G11  C0AU67399   2.149  -0.723   4.835
   988G11  C0BE67400   2.205  -0.680   4.951
   988G11  C0BI67401   2.331  -0.612   4.945
   988G11  C0BJ67402   2.397  -0.589   4.823
   988G11  C0BK67403   2.514  -0.517   4.812
   988G11  C0BW67404   2.568  -0.462   4.926
   988G11  C0BV67405   2.509  -0.481   5.053
   988G11  C0BU67406   2.555  -0.428   5.168
   988G11  C0BX67407   2.484  -0.439   5.289
   988G11  C0BT67408   2.662  -0.340   5.162
   988G11  C0CD67409   2.702  -0.268   5.274
   988G11  C0CB67410   2.636  -0.281   5.395
   988G11  C0CE67411   2.802  -0.171   5.260
   988G11  C0CK67412   2.869  -0.152   5.138
   988G11  C0BS67413   2.832  -0.231   5.029
   988G11  C0CJ67414   2.896  -0.209   4.898
   988G11  C0BP67415   2.857  -0.288   4.790
   988G11  C0CI67416   2.925  -0.280   4.665
   988G11  C0CH67417   2.892  -0.370   4.564
   988G11  H01267418   2.960  -0.369   4.481
   988G11  C0BN67419   2.767  -0.430   4.568
   988G11  C0CG67420   2.707  -0.469   4.450
   988G11  C0CF67421   2.768  -0.449   4.322
   988G11  H01367422   2.870  -0.421   4.304
   988G11  O00G67423   2.701  -0.473   4.207
   988G11  C0AA67424   2.570  -0.507   4.211
   988G11  C0A967425   2.498  -0.515   4.090
   988G11  H00U67426   2.558  -0.509   4.000
   988G11  C0A867427   2.356  -0.533   4.094
   988G11  H00V67428   2.298  -0.538   4.003
   988G11  C0A767429   2.281  -0.551   4.213
   988G11  C0A667430   2.363  -0.565   4.338
   988G11  C0A567431   2.311  -0.599   4.463
   988G11  C0A467432   2.176  -0.655   4.471
   988G11  C0A367433   2.053  -0.664   4.396
   988G11  C0A267434   2.035  -0.570   4.295
   988G11  C0A167435   1.913  -0.565   4.224
   988G11  C0A067436   1.773  -0.603   4.246
   988G11  C09Z67437   1.682  -0.585   4.137
   988G11  C09Y67438   1.546  -0.610   4.150
   988G11  H00Y67439   1.486  -0.608   4.060
   988G11  C09X67440   1.496  -0.640   4.278
   988G11  C09W67441   1.355  -0.647   4.294
   988G11  H00R67442   1.295  -0.634   4.205
   988G11  C0AX67443   1.298  -0.675   4.416
   988G11  H00S67444   1.190  -0.684   4.421
   988G11  C0AW67445   1.382  -0.698   4.520
   988G11  H00T67446   1.328  -0.720   4.611
   988G11  C0AN67447   1.524  -0.699   4.513
   988G11  C0AO67448   1.607  -0.738   4.619
   988G11  C0AM67449   1.580  -0.662   4.390
   988G11  C0B267450   1.720  -0.547   4.004
   988G11  O00D67451   1.658  -0.542   3.897
   988G11  C0B167452   1.851  -0.500   3.987
   988G11  H00W67453   1.884  -0.442   3.901
   988G11  C0AL67454   1.721  -0.655   4.371
   988G11  C0AK67455   1.802  -0.702   4.477
   988G11  C0B067456   1.940  -0.515   4.095
   988G11  C0AZ67457   2.079  -0.490   4.084
   988G11  H00X67458   2.112  -0.437   3.996
   988G11  C0AJ67459   1.947  -0.710   4.474
   988G11  C0AH67460   2.145  -0.709   4.594
   988G11  C0AE67461   2.389  -0.586   4.582
   988G11  C0AD67462   2.510  -0.532   4.574
   988G11  C0AY67463   2.141  -0.547   4.199
   988G11  C0AB67464   2.501  -0.531   4.334
   988G11  C0AC67465   2.574  -0.510   4.452
   988G11  C0BM67466   2.700  -0.434   4.688
   988G11  C0CM67467   3.029  -0.186   4.652
   988G11  C09M67468   3.077  -0.122   4.765
   988G11  C09867469   3.212  -0.080   4.758
   988G11  C08R67470   3.283   0.025   4.827
   988G11  C08Q67471   3.423   0.034   4.803
   988G11  C08P67472   3.525   0.132   4.798
   988G11  C08Y67473   3.633   0.112   4.709
   988G11  C09767474   3.631   0.016   4.616
   988G11  C09667475   3.685   0.059   4.503
   988G11  C09067476   3.775   0.154   4.543
   988G11  C09567477   3.844   0.248   4.461
   988G11  C09467478   3.931   0.351   4.510
   988G11  C08J67479   3.934   0.419   4.633
   988G11  C08I67480   3.985   0.549   4.617
   988G11  C08H67481   3.937   0.636   4.715
   988G11  C08G67482   3.821   0.562   4.778
   988G11  C08F67483   3.729   0.580   4.886
   988G11  C08E67484   3.740   0.697   4.971
   988G11  C05967485   3.833   0.805   4.967
   988G11  C05867486   3.835   0.906   5.070
   988G11  C05767487   3.926   1.013   5.076
   988G11  C05667488   4.004   1.030   4.959
   988G11  C05567489   3.984   0.958   4.849
   988G11  C05467490   4.112   0.961   4.782
   988G11  C05367491   4.206   1.049   4.851
   988G11  C05267492   4.345   1.077   4.834
   988G11  C05167493   4.426   1.002   4.740
   988G11  C05U67494   4.382   0.879   4.677
   988G11  C05T67495   4.261   0.792   4.686
   988G11  C06K67496   4.276   0.694   4.577
   988G11  H00J67497   4.200   0.620   4.555
   988G11  C06L67498   4.393   0.721   4.504
   988G11  H00I67499   4.417   0.658   4.419
   988G11  C05V67500   4.459   0.831   4.570
   988G11  C06J67501   4.575   0.893   4.527
   988G11  H00K67502   4.631   0.860   4.440
   988G11  C05X67503   4.626   1.006   4.587
   988G11  C06I67504   4.752   1.068   4.560
   988G11  H00L67505   4.812   1.035   4.476
   988G11  C04Z67506   4.814   1.167   4.645
   988G11  C06H67507   4.948   1.209   4.618
   988G11  H00H67508   4.996   1.167   4.531
   988G11  C04Y67509   5.009   1.292   4.708
   988G11  C06G67510   5.153   1.328   4.690
   988G11  O00967511   5.213   1.296   4.592
   988G11  O00867512   5.216   1.396   4.787
   988G11  C04P67513   5.152   1.431   4.905
   988G11  C04J67514   5.210   1.495   5.023
   988G11  C04Q67515   5.346   1.522   5.035
   988G11  H00E67516   5.406   1.497   4.949
   988G11  C04M67517   5.409   1.562   5.154
   988G11  C04R67518   5.552   1.576   5.171
   988G11  H00F67519   5.622   1.559   5.089
   988G11  C04S67520   5.604   1.605   5.295
   988G11  H00G67521   5.711   1.594   5.303
   988G11  O00767522   5.522   1.634   5.403
   988G11  C03V67523   5.383   1.626   5.387
   988G11  C03U67524   5.298   1.648   5.498
   988G11  O00667525   5.353   1.693   5.614
   988G11  C03F67526   5.281   1.682   5.727
   988G11  C03E67527   5.147   1.646   5.732
   988G11  C03D67528   5.082   1.623   5.612
   988G11  C03C67529   4.948   1.597   5.615
   988G11  C03B67530   4.886   1.599   5.743
   988G11  C03A67531   4.749   1.576   5.744
   988G11  C03967532   4.672   1.533   5.628
   988G11  C03867533   4.541   1.505   5.686
   988G11  C03767534   4.555   1.538   5.823
   988G11  C03667535   4.451   1.529   5.911
   988G11  C02R67536   4.450   1.541   6.048
   988G11  C03567537   4.324   1.493   6.080
   988G11  C03R67538   4.256   1.454   5.970
   988G11  C03S67539   4.141   1.378   5.971
   988G11  C04967540   4.099   1.330   5.852
   988G11  C04867541   4.180   1.364   5.738
   988G11  C03P67542   4.308   1.433   5.738
   988G11  C04767543   4.118   1.314   5.623
   988G11  C04667544   4.174   1.329   5.498
   988G11  C04567545   4.290   1.386   5.445
   988G11  C03T67546   4.399   1.443   5.508
   988G11  C04467547   4.498   1.475   5.405
   988G11  C04367548   4.438   1.445   5.284
   988G11  C04267549   4.535   1.418   5.188
   988G11  C04167550   4.658   1.470   5.250
   988G11  C04067551   4.786   1.468   5.190
   988G11  C03Z67552   4.911   1.518   5.248
   988G11  C04H67553   5.001   1.498   5.142
   988G11  C04G67554   4.942   1.440   5.028
   988G11  C03N67555   4.963   1.557   5.378
   988G11  C03Y67556   5.105   1.585   5.376
   988G11  C03X67557   5.185   1.573   5.258
   988G11  C04F67558   4.812   1.417   5.057
   988G11  C04E67559   4.736   1.338   4.966
   988G11  C04O67560   4.809   1.300   4.848
   988G11  C04D67561   4.603   1.294   4.973
   988G11  C04V67562   4.546   1.212   4.879
   988G11  C04W67563   4.615   1.158   4.769
   988G11  C04C67564   4.507   1.332   5.066
   988G11  C04L67565   4.385   1.254   5.032
   988G11  C04U67566   4.256   1.264   5.091
   988G11  C05Q67567   4.156   1.175   5.068
   988G11  C05P67568   4.072   1.178   5.172
   988G11  C04T67569   4.125   1.249   5.275
   988G11  C04B67570   4.237   1.308   5.224
   988G11  C03M67571   4.640   1.493   5.391
   988G11  C04A67572   4.322   1.378   5.312
   988G11  C05H67573   4.085   1.267   5.410
   988G11  C05G67574   3.979   1.203   5.488
   988G11  C05F67575   3.884   1.120   5.435
   988G11  C05E67576   3.783   1.048   5.507
   988G11  C05L67577   3.734   1.040   5.641
   988G11  C05K67578   3.802   1.109   5.750
   988G11  C05J67579   3.919   1.199   5.740
   988G11  C06667580   3.748   1.084   5.881
   988G11  C06567581   3.635   1.001   5.900
   988G11  C06467582   3.578   0.927   5.790
   988G11  C06N67583   3.588   0.973   6.026
   988G11  C06967584   3.636   1.037   6.138
   988G11  C06P67585   3.589   1.008   6.269
   988G11  C06R67586   3.657   1.049   6.381
   988G11  C06B67587   3.766   1.131   6.367
   988G11  C06S67588   3.836   1.170   6.479
   988G11  C02G67589   3.947   1.251   6.473
   988G11  C02F67590   4.014   1.297   6.585
   988G11  C02767591   3.980   1.248   6.710
   988G11  C02667592   4.064   1.267   6.818
   988G11  C00E67593   4.024   1.223   6.944
   988G11  C00D67594   4.112   1.242   7.053
   988G11  C00C67595   4.085   1.180   7.169
   988G11  C00B67596   3.974   1.108   7.189
   988G11  C01567597   3.884   1.086   7.085
   988G11  C07F67598   3.779   1.001   7.099
   988G11  C07E67599   3.697   0.975   6.988
   988G11  C06W67600   3.721   1.036   6.863
   988G11  C06V67601   3.827   1.127   6.854
   988G11  C06X67602   3.655   0.997   6.751
   988G11  C07B67603   3.554   0.906   6.766
   988G11  C07C67604   3.520   0.847   6.891
   988G11  C0FU67605   3.421   0.751   6.902
   988G11  C0F767606   3.388   0.694   7.025
   988G11  C0F667607   3.303   0.580   7.027
   988G11  C0F867608   3.286   0.517   7.145
   988G11  C0F967609   3.210   0.399   7.154
   988G11  C0FA67610   3.214   0.315   7.266
   988G11  C0FZ67611   3.282   0.356   7.376
   988G11  C0G067612   3.290   0.276   7.488
   988G11  C0GD67613   3.229   0.150   7.489
   988G11  C0FC67614   3.145   0.117   7.379
   988G11  C0GH67615   3.063   0.003   7.385
   988G11  C0EY67616   2.960  -0.012   7.288
   988G11  C0EX67617   2.875  -0.126   7.295
   988G11  C0EW67618   2.769  -0.131   7.202
   988G11  C0FR67619   2.691  -0.250   7.189
   988G11  H01D67620   2.614  -0.262   7.114
   988G11  C0FS67621   2.711  -0.355   7.278
   988G11  H01C67622   2.658  -0.449   7.283
   988G11  C0GJ67623   2.814  -0.345   7.370
   988G11  H01N67624   2.832  -0.421   7.445
   988G11  C0EV67625   2.751  -0.026   7.108
   988G11  C0FT67626   2.636  -0.017   7.026
   988G11  H01E67627   2.546  -0.073   7.042
   988G11  C0EU67628   2.849   0.067   7.093
   988G11  C0ET67629   2.864   0.139   6.976
   988G11  C0EI67630   2.962   0.231   6.942
   988G11  C0F167631   3.050   0.258   7.051
   988G11  C0F067632   3.044   0.176   7.167
   988G11  C0EH67633   2.966   0.302   6.822
   988G11  C0EG67634   2.881   0.265   6.713
   988G11  C0EJ67635   3.061   0.405   6.812
   988G11  C0F367636   3.145   0.431   6.923
   988G11  C0EK67637   3.082   0.470   6.688
   988G11  C0EL67638   3.012   0.429   6.571
   988G11  C0EM67639   3.058   0.496   6.450
   988G11  C0EN67640   3.154   0.594   6.459
   988G11  C07I67641   3.193   0.639   6.336
   988G11  C07467642   3.299   0.732   6.317
   988G11  C07367643   3.337   0.758   6.190
   988G11  C07267644   3.439   0.853   6.171
   988G11  C07567645   3.353   0.778   6.435
   988G11  C07667646   3.318   0.730   6.560
   988G11  C07867647   3.388   0.769   6.670
   988G11  C07G67648   3.451   0.870   6.415
   988G11  C07067649   3.520   0.921   6.528
   988G11  C07Z67650   3.127   0.567   6.241
   988G11  C07767651   3.218   0.639   6.573
   988G11  C0EO67652   3.183   0.574   6.687
   988G11  C0F467653   3.255   0.608   6.799
   988G11  C0EQ67654   2.766   0.131   6.881
   988G11  C0FQ67655   2.895  -0.231   7.382
   988G11  C0GI67656   3.002  -0.214   7.477
   988G11  H01L67657   3.023  -0.293   7.548
   988G11  C0EZ67658   2.948   0.077   7.185
   988G11  C0GG67659   3.078  -0.092   7.485
   988G11  C0GF67660   3.173  -0.067   7.584
   988G11  H01M67661   3.197  -0.133   7.667
   988G11  C0GE67662   3.241   0.060   7.597
   988G11  H01K67663   3.311   0.090   7.673
   988G11  O00J67664   3.354   0.315   7.597
   988G11  C0GA67665   3.415   0.437   7.599
   988G11  C0G967666   3.471   0.489   7.719
   988G11  H01H67667   3.466   0.440   7.815
   988G11  C0G867668   3.548   0.606   7.723
   988G11  C0G767669   3.610   0.659   7.846
   988G11  H01I67670   3.598   0.612   7.942
   988G11  O00I67671   3.670   0.784   7.845
   988G11  C0G667672   3.709   0.828   7.715
   988G11  H01J67673   3.768   0.918   7.713
   988G11  C02D67674   3.660   0.772   7.594
   988G11  C02C67675   3.695   0.823   7.466
   988G11  C01767676   3.816   0.901   7.447
   988G11  C01667677   3.844   0.966   7.324
   988G11  O00167678   3.909   0.909   7.548
   988G11  C01867679   4.028   0.965   7.528
   988G11  C00967680   4.059   1.035   7.410
   988G11  C00867681   4.178   1.107   7.378
   988G11  C00767682   4.311   1.110   7.434
   988G11  C00667683   4.359   1.027   7.537
   988G11  C00567684   4.494   1.012   7.579
   988G11  C00467685   4.613   1.064   7.521
   988G11  C00367686   4.641   1.146   7.403
   988G11  C00267687   4.777   1.169   7.361
   988G11  C00P67688   4.807   1.233   7.241
   988G11  C00O67689   4.940   1.252   7.204
   988G11  C00N67690   4.971   1.306   7.080
   988G11  C01067691   5.104   1.321   7.037
   988G11  C01167692   5.134   1.369   6.905
   988G11  C01Q67693   5.263   1.355   6.853
   988G11  C01U67694   5.364   1.289   6.930
   988G11  C01267695   5.331   1.245   7.061
   988G11  H00067696   5.404   1.189   7.118
   988G11  C01V67697   5.490   1.272   6.867
   988G11  H00767698   5.570   1.231   6.926
   988G11  O00567699   5.518   1.316   6.736
   988G11  C01W67700   5.410   1.345   6.658
   988G11  C03167701   5.427   1.348   6.523
   988G11  C03267702   5.311   1.365   6.446
   988G11  H00A67703   5.306   1.351   6.339
   988G11  C03367704   5.188   1.396   6.499
   988G11  H00B67705   5.106   1.416   6.432
   988G11  C01O67706   5.173   1.413   6.634
   988G11  C01N67707   5.057   1.456   6.696
   988G11  C01M67708   4.950   1.529   6.623
   988G11  C01L67709   4.915   1.575   6.484
   988G11  C01K67710   4.777   1.592   6.479
   988G11  C01Y67711   4.694   1.585   6.368
   988G11  C02I67712   4.759   1.593   6.244
   988G11  C02N67713   4.681   1.575   6.126
   988G11  C02M67714   4.750   1.575   6.001
   988G11  C02L67715   4.892   1.606   5.995
   988G11  C02K67716   4.971   1.610   6.114
   988G11  C02U67717   5.106   1.644   6.101
   988G11  C02V67718   5.164   1.651   5.972
   988G11  C03H67719   5.305   1.666   5.961
   988G11  H00C67720   5.379   1.678   6.039
   988G11  C02W67721   5.184   1.668   6.216
   988G11  C02X67722   5.113   1.651   6.332
   988G11  C02Y67723   5.205   1.689   6.430
   988G11  H00867724   5.183   1.683   6.536
   988G11  C02Z67725   5.342   1.700   6.371
   988G11  O00467726   5.454   1.699   6.427
   988G11  O00367727   5.318   1.694   6.233
   988G11  C02J67728   4.905   1.607   6.240
   988G11  C01Z67729   4.563   1.560   6.395
   988G11  C02067730   4.512   1.531   6.521
   988G11  C01I67731   4.594   1.539   6.629
   988G11  C01H67732   4.563   1.484   6.752
   988G11  C00K67733   4.665   1.455   6.843
   988G11  C01S67734   4.798   1.476   6.813
   988G11  C01467735   4.903   1.423   6.882
   988G11  C00J67736   4.636   1.386   6.959
   988G11  C00I67737   4.504   1.360   6.987
   988G11  C00H67738   4.404   1.379   6.890
   988G11  C00G67739   4.274   1.337   6.912
   988G11  C00S67740   4.476   1.300   7.105
   988G11  C00T67741   4.339   1.278   7.126
   988G11  C00U67742   4.308   1.211   7.242
   988G11  C00R67743   4.577   1.256   7.195
   988G11  C00L67744   4.742   1.342   7.044
   988G11  C02867745   4.437   1.436   6.770
   988G11  C02367746   4.344   1.435   6.668
   988G11  C02467747   4.220   1.380   6.681
   988G11  C02167748   4.386   1.481   6.543
   988G11  C02267749   4.306   1.456   6.430
   988G11  C02H67750   4.179   1.398   6.446
   988G11  C03067751   4.109   1.359   6.331
   988G11  C03467752   4.154   1.392   6.208
   988G11  C02P67753   4.357   1.486   6.304
   988G11  C02B67754   4.487   1.533   6.282
   988G11  C01J67755   4.726   1.581   6.608
   988G11  C01X67756   4.983   1.607   6.361
   988G11  C01T67757   4.827   1.546   6.692
   988G11  H00967758   5.525   1.324   6.486
   988G11  C01P67759   5.280   1.370   6.714
   988G11  C01R67760   5.029   1.423   6.830
   988G11  C00Z67761   5.205   1.262   7.116
   988G11  O00067762   5.187   1.214   7.241
   988G11  C00M67763   4.875   1.364   7.004
   988G11  C00Y67764   5.051   1.212   7.286
   988G11  C01367765   5.017   1.153   7.406
   988G11  H00167766   5.093   1.126   7.478
   988G11  C00Q67767   4.708   1.277   7.161
   988G11  C00167768   4.885   1.134   7.449
   988G11  C00067769   4.854   1.076   7.572
   988G11  H00667770   4.931   1.050   7.643
   988G11  C00W67771   4.540   1.190   7.314
   988G11  C01G67772   4.726   1.037   7.606
   988G11  H00567773   4.720   0.995   7.706
   988G11  C01C67774   4.487   0.918   7.688
   988G11  H00267775   4.567   0.872   7.744
   988G11  C01B67776   4.350   0.892   7.713
   988G11  C01D67777   4.296   0.795   7.798
   988G11  H00367778   4.358   0.726   7.854
   988G11  C01E67779   4.161   0.786   7.809
   988G11  H00467780   4.125   0.715   7.882
   988G11  O00267781   4.071   0.859   7.733
   988G11  C01A67782   4.268   0.957   7.627
   988G11  C00V67783   4.396   1.170   7.339
   988G11  C01967784   4.122   0.934   7.633
   988G11  C02E67785   3.620   0.790   7.355
   988G11  C0FX67786   3.512   0.705   7.364
   988G11  C0FW67787   3.444   0.666   7.255
   988G11  C0GB67788   3.495   0.632   7.486
   988G11  C0G367789   3.647   0.853   7.233
   988G11  C07H67790   3.563   0.828   7.124
   988G11  C0GC67791   3.563   0.674   7.602
   988G11  C0G267792   3.416   0.519   7.485
   988G11  C0G167793   3.356   0.474   7.370
   988G11  C0FB67794   3.137   0.199   7.268
   988G11  C0F267795   3.139   0.361   7.043
   988G11  C0FY67796   3.358   0.556   7.255
   988G11  C0F567797   3.236   0.540   6.918
   988G11  C0FV67798   3.461   0.736   7.136
   988G11  C07967799   3.351   0.714   6.792
   988G11  C07A67800   3.485   0.868   6.654
   988G11  C06Y67801   3.687   1.051   6.624
   988G11  C07D67802   3.592   0.884   7.003
   988G11  C01F67803   3.758   0.934   7.218
   988G11  C00A67804   3.956   1.043   7.310
   988G11  C00X67805   4.183   1.164   7.260
   988G11  C00F67806   4.241   1.294   7.033
   988G11  C02967807   3.910   1.143   6.959
   988G11  C02567808   4.188   1.333   6.805
   988G11  C06U67809   3.865   1.170   6.726
   988G11  C02A67810   4.138   1.357   6.571
   988G11  C05Y67811   3.994   1.286   6.343
   988G11  C05Z67812   3.926   1.249   6.228
   988G11  C06067813   3.973   1.277   6.105
   988G11  C06267814   3.918   1.228   5.985
   988G11  C06T67815   3.794   1.135   6.607
   988G11  C06A67816   3.812   1.165   6.240
   988G11  C06Z67817   3.622   1.011   6.510
   988G11  C06Q67818   3.489   0.912   6.285
   988G11  C06867819   3.749   1.121   6.123
   988G11  C06767820   3.804   1.147   5.997
   988G11  C06367821   3.636   0.939   5.662
   988G11  C06C67822   3.591   0.858   5.560
   988G11  C06D67823   3.640   0.866   5.433
   988G11  C06E67824   3.616   0.780   5.324
   988G11  C07Q67825   3.524   0.689   5.344
   988G11  C07P67826   3.462   0.678   5.471
   988G11  C07T67827   3.368   0.579   5.497
   988G11  C07U67828   3.313   0.567   5.622
   988G11  C07V67829   3.216   0.470   5.642
   988G11  C08467830   3.178   0.386   5.534
   988G11  C08C67831   3.230   0.407   5.404
   988G11  C08B67832   3.189   0.325   5.301
   988G11  C08A67833   3.261   0.338   5.185
   988G11  C08967834   3.367   0.422   5.158
   988G11  C08867835   3.442   0.406   5.039
   988G11  C08767836   3.551   0.495   5.026
   988G11  C08667837   3.565   0.597   5.116
   988G11  C08X67838   3.427   0.298   4.951
   988G11  C08T67839   3.299   0.224   4.961
   988G11  C08D67840   3.396   0.510   5.263
   988G11  C08U67841   3.230   0.249   5.082
   988G11  C08V67842   3.132   0.158   5.100
   988G11  C0CY67843   3.068   0.134   5.220
   988G11  C0CX67844   2.977   0.032   5.228
   988G11  C0CW67845   2.921   0.014   5.355
   988G11  C0CV67846   2.953   0.093   5.460
   988G11  C0D467847   3.044   0.200   5.442
   988G11  C0CU67848   2.900   0.064   5.586
   988G11  C0CT67849   2.815  -0.044   5.610
   988G11  C0CS67850   2.779  -0.115   5.500
   988G11  C0D667851   2.949   0.150   5.686
   988G11  C0EC67852   3.033   0.260   5.671
   988G11  C07X67853   3.066   0.344   5.780
   988G11  C0DL67854   2.892   0.125   5.810
   988G11  C0DK67855   2.929   0.207   5.913
   988G11  C0DN67856   2.853   0.165   6.015
   988G11  C0D867857   2.797   0.029   5.842
   988G11  C08W67858   3.106   0.086   4.980
   988G11  C0CQ67859   3.022  -0.029   4.990
   988G11  C09367860   3.105   0.221   5.320
   988G11  C09267861   3.086   0.279   5.548
   988G11  C08567862   3.329   0.501   5.388
   988G11  C07S67863   3.495   0.602   5.240
   988G11  C06F67864   3.676   0.784   5.198
   988G11  C07O67865   3.497   0.762   5.581
   988G11  C07N67866   3.440   0.745   5.707
   988G11  C05D67867   3.724   0.967   5.407
   988G11  C05C67868   3.790   0.971   5.285
   988G11  C05N67869   3.883   1.070   5.299
   988G11  C05M67870   3.997   1.235   5.620
   988G11  C05I67871   3.978   1.253   5.857
   988G11  C06167872   4.085   1.354   6.094
   988G11  C02Q67873   4.272   1.461   6.199
   988G11  C02O67874   4.542   1.553   6.154
   988G11  C03Q67875   4.332   1.480   5.864
   988G11  C03O67876   4.412   1.454   5.641
   988G11  C03L67877   4.734   1.524   5.497
   988G11  C02S67878   4.683   1.563   5.871
   988G11  C02T67879   4.950   1.617   5.868
   988G11  C03K67880   4.881   1.558   5.495
   988G11  C03I67881   5.088   1.636   5.856
   988G11  C03G67882   5.362   1.684   5.839
   988G11  H00D67883   5.465   1.711   5.820
   988G11  C03J67884   5.159   1.624   5.493
   988G11  C03W67885   5.327   1.593   5.262
   988G11  C04I67886   5.134   1.527   5.138
   988G11  C04K67887   5.017   1.404   4.917
   988G11  C04N67888   4.942   1.335   4.823
   988G11  C04X67889   4.745   1.210   4.754
   988G11  C05067890   4.551   1.056   4.696
   988G11  C05W67891   4.418   1.174   4.911
   988G11  C05S67892   4.131   0.831   4.735
   988G11  C05R67893   4.133   1.092   4.962
   988G11  C05O67894   3.962   1.093   5.188
   988G11  C05B67895   3.761   0.886   5.179
   988G11  C05A67896   3.928   0.832   4.864
   988G11  C07R67897   3.663   0.690   5.096
   988G11  C08N67898   3.635   0.475   4.917
   988G11  C08M67899   3.627   0.357   4.834
   988G11  C08L67900   3.722   0.333   4.733
   988G11  C09167901   4.001   0.761   4.765
   988G11  C09K67902   3.976   0.581   4.473
   988G11  H00M67903   3.974   0.683   4.436
   988G11  C08K67904   3.819   0.432   4.718
   988G11  C09J67905   3.946   0.452   4.408
   988G11  C09I67906   3.891   0.395   4.289
   988G11  C09L67907   3.913   0.426   4.151
   988G11  H00N67908   3.973   0.504   4.107
   988G11  C09Q67909   3.848   0.342   4.065
   988G11  H00O67910   3.860   0.362   3.960
   988G11  O00B67911   3.773   0.227   4.095
   988G11  C09G67912   3.761   0.190   4.225
   988G11  C09F67913   3.670   0.088   4.245
   988G11  O00A67914   3.606   0.058   4.129
   988G11  C09P67915   3.532  -0.053   4.135
   988G11  H00P67916   3.579  -0.141   4.094
   988G11  C09O67917   3.440  -0.068   4.245
   988G11  C09D67918   3.499  -0.047   4.372
   988G11  C09C67919   3.450  -0.086   4.497
   988G11  C09N67920   3.329  -0.147   4.541
   988G11  C09T67921   3.210  -0.142   4.464
   988G11  C09S67922   3.206  -0.126   4.317
   988G11  C0CP67923   3.068  -0.129   4.294
   988G11  C0CN67924   2.986  -0.139   4.405
   988G11  C0CO67925   2.848  -0.136   4.388
   988G11  H01467926   2.776  -0.157   4.466
   988G11  C0CZ67927   2.806  -0.133   4.249
   988G11  H01567928   2.702  -0.137   4.219
   988G11  C0D067929   2.893  -0.124   4.136
   988G11  C0G567930   2.846  -0.133   3.993
   988G11  H01F67931   2.741  -0.140   3.969
   988G11  C0G467932   2.943  -0.137   3.896
   988G11  H01G67933   2.916  -0.140   3.792
   988G11  O00H67934   3.076  -0.122   3.917
   988G11  C0D267935   3.114  -0.105   4.050
   988G11  C09V67936   3.254  -0.104   4.081
   988G11  H00Q67937   3.321  -0.107   3.996
   988G11  C0D167938   3.029  -0.111   4.159
   988G11  C09R67939   3.303  -0.099   4.214
   988G11  C09H67940   3.832   0.269   4.320
   988G11  C09E67941   3.628   0.028   4.372
   988G11  C09B67942   3.520  -0.064   4.615
   988G11  C08Z67943   3.719   0.205   4.666
   988G11  C08O67944   3.522   0.261   4.856
   988G11  C09A67945   3.446  -0.086   4.730
   988G11  C08S67946   3.219   0.125   4.894
   988G11  C09967947   3.325  -0.141   4.688
   988G11  C09U67948   3.075  -0.161   4.516
   988G11  C0BO67949   2.751  -0.373   4.805
   988G11  C0CL67950   3.001  -0.120   4.888
   988G11  C0D367951   2.963  -0.055   5.123
   988G11  C0D567952   2.832  -0.091   5.372
   988G11  C0BR67953   2.731  -0.322   5.040
   988G11  C0BQ67954   2.686  -0.385   4.925
   988G11  C0BL67955   2.580  -0.499   4.691
   988G11  C0AF67956   2.341  -0.633   4.704
   988G11  C0BH67957   2.389  -0.555   5.061
   988G11  C0BG67958   2.317  -0.558   5.176
   988G11  C0BD67959   2.131  -0.683   5.067
   988G11  C0AG67960   2.217  -0.691   4.715
   988G11  C0AI67961   2.010  -0.746   4.593
   988G11  C0AV67962   1.743  -0.748   4.596
   988G11  C0BB67963   1.830  -0.852   4.945
   988G11  O00C67964   1.546  -0.761   4.743
   988G11  C0BC67965   1.739  -0.849   5.049
   988G11  C0B967966   2.001  -0.742   5.073
   988G11  O00E67967   1.889  -0.637   5.400
   988G11  C0CA67968   1.941  -0.599   5.527
   988G11  O00F67969   1.868  -0.602   5.627
   988G11  C0BF67970   2.184  -0.618   5.179
   988G11  C0C567971   2.080  -0.554   5.522
   988G11  C0C467972   2.135  -0.512   5.645
   988G11  H01167973   2.080  -0.507   5.738
   988G11  C0C867974   2.359  -0.501   5.293
   988G11  C0C267975   2.264  -0.457   5.642
   988G11  C0C367976   2.336  -0.416   5.755
   988G11  C0DY67977   2.300  -0.432   5.890
   988G11  H01667978   2.223  -0.493   5.936
   988G11  C0DX67979   2.387  -0.346   5.966
   988G11  C0DW67980   2.374  -0.352   6.109
   988G11  C0BY67981   2.524  -0.363   5.401
   988G11  C0DB67982   2.446  -0.337   5.752
   988G11  C0CC67983   2.675  -0.205   5.510
   988G11  C0D767984   2.757  -0.063   5.737
   988G11  C0DZ67985   2.486  -0.279   5.874
   988G11  C0DM67986   2.779   0.048   5.981
   988G11  C0DQ67987   2.560  -0.180   6.162
   988G11  C0DV67988   2.461  -0.275   6.192
   988G11  C0E067989   2.287  -0.426   6.199
   988G11  C0FO67990   2.154  -0.270   6.487
   988G11  C0E367991   2.138  -0.437   6.186
   988G11  H01767992   2.085  -0.426   6.092
   988G11  C0GV67993   2.015  -0.250   6.475
   988G11  C0ES67994   2.235  -0.165   6.546
   988G11  C0GQ67995   1.971   0.081   6.629
   988G11  C0FJ67996   2.246   0.228   6.827
   988G11  C0ED67997   2.383   0.030   6.683
   988G11  C0ER67998   2.652   0.058   6.910
   988G11  C0EP67999   2.775   0.177   6.751
   988G11  C0E668000   2.556  -0.006   6.510
   988G11  C0DE68001   2.730   0.132   6.293
   988G11  C0EA68002   2.910   0.321   6.581
   988G11  C0DF68003   2.780   0.252   6.233
   988G11  C08068004   3.031   0.490   6.310
   988G11  C0DO68005   2.863   0.254   6.123
   988G11  C0DJ68006   3.014   0.321   5.902
   988G11  C07K68007   3.178   0.587   6.106
   988G11  C07W68008   3.150   0.449   5.766
   988G11  C08368009   3.348   0.648   5.731
   988G11  C07J68010   3.280   0.688   6.086
   988G11  C06O68011   3.484   0.882   6.045
   988G11  C06M68012   3.479   0.828   5.811
   998G11  C07168013   4.635   5.914  14.972
   998G11  C07L68014   4.559   5.840  15.065
   998G11  C07M68015   4.457   5.897  15.139
   998G11  C07Y68016   4.373   5.819  15.223
   998G11  C08168017   4.400   5.685  15.253
   998G11  C08268018   4.315   5.617  15.345
   998G11  C0DI68019   4.318   5.478  15.396
   998G11  C0DH68020   4.396   5.365  15.362
   998G11  C0DG68021   4.365   5.255  15.452
   998G11  C0E968022   4.341   5.116  15.417
   998G11  C0E868023   4.231   5.076  15.503
   998G11  C0E768024   4.191   4.939  15.556
   998G11  C0EB68025   4.290   4.834  15.534
   998G11  C0EF68026   4.297   4.716  15.617
   998G11  C0EE68027   4.257   4.694  15.753
   998G11  C0FD68028   4.355   4.636  15.841
   998G11  C0FE68029   4.497   4.638  15.834
   998G11  H01B68030   4.535   4.711  15.764
   998G11  C0FF68031   4.577   4.554  15.913
   998G11  H01A68032   4.685   4.558  15.906
   998G11  C0FG68033   4.515   4.478  16.003
   998G11  H01868034   4.573   4.422  16.075
   998G11  C0FH68035   4.376   4.468  16.021
   998G11  C0FI68036   4.308   4.387  16.117
   998G11  H01968037   4.374   4.319  16.170
   998G11  O00K68038   4.176   4.382  16.140
   998G11  C0FL68039   4.102   4.453  16.052
   998G11  C0FK68040   4.154   4.538  15.949
   998G11  C0FM68041   4.062   4.607  15.870
   998G11  C0FN68042   3.924   4.596  15.892
   998G11  C0FP68043   3.879   4.520  16.003
   998G11  C0GO68044   3.747   4.521  16.048
   998G11  C0GN68045   3.700   4.465  16.163
   998G11  C0GR68046   3.789   4.382  16.227
   998G11  C0GS68047   3.760   4.331  16.353
   998G11  H01Q68048   3.829   4.267  16.406
   998G11  C0GT68049   3.644   4.371  16.418
   998G11  H01O68050   3.640   4.349  16.524
   998G11  C0GU68051   3.553   4.454  16.352
   998G11  H01P68052   3.460   4.469  16.405
   998G11  O00L68053   3.916   4.356  16.175
   998G11  C0GM68054   3.580   4.509  16.223
   998G11  C0GL68055   3.505   4.607  16.153
   998G11  H01R68056   3.408   4.640  16.188
   998G11  C0GK68057   3.552   4.661  16.036
   998G11  C0GP68058   3.520   4.776  15.948
   998G11  C0E268059   3.593   4.759  15.829
   998G11  C0E168060   3.597   4.887  15.763
   998G11  C0DU68061   3.721   4.952  15.730
   998G11  C0DT68062   3.844   4.902  15.697
   998G11  C0E468063   3.896   4.778  15.737
   998G11  C0E568064   4.033   4.783  15.706
   998G11  C0DS68065   3.949   4.980  15.652
   998G11  C0DR68066   3.936   5.121  15.655
   998G11  C0DD68067   4.019   5.223  15.614
   998G11  C0DC68068   3.947   5.345  15.634
   998G11  C0DP68069   3.819   5.322  15.701
   998G11  C0DA68070   3.723   5.417  15.748
   998G11  C0D968071   3.700   5.560  15.713
   998G11  C0CR68072   3.588   5.634  15.762
   998G11  C0C068073   3.496   5.581  15.850
   998G11  C0BZ68074   3.382   5.646  15.906
   998G11  C0C168075   3.305   5.583  16.005
   998G11  C0C768076   3.190   5.646  16.046
   998G11  C0C668077   3.098   5.576  16.129
   998G11  C0C968078   2.982   5.642  16.176
   998G11  C0B868079   2.882   5.572  16.252
   998G11  C0B768080   2.765   5.630  16.288
   998G11  C0B668081   2.645   5.568  16.347
   998G11  C0B568082   2.610   5.436  16.308
   998G11  H00Z68083   2.669   5.359  16.259
   998G11  C0B468084   2.466   5.443  16.300
   998G11  H01068085   2.405   5.380  16.237
   998G11  C0B368086   2.415   5.561  16.366
   998G11  C0AP68087   2.318   5.661  16.327
   998G11  C0AQ68088   2.389   5.780  16.331
   998G11  C0AR68089   2.349   5.893  16.250
   998G11  C0AS68090   2.445   5.978  16.220
   998G11  C0AT68091   2.578   5.942  16.212
   998G11  C0BA68092   2.620   5.830  16.280
   998G11  C0AU68093   2.661   5.999  16.119
   998G11  C0BE68094   2.786   5.948  16.100
   998G11  C0BI68095   2.868   6.011  16.012
   998G11  C0BJ68096   2.829   6.123  15.943
   998G11  C0BK68097   2.913   6.185  15.855
   998G11  C0BW68098   3.034   6.134  15.826
   998G11  C0BV68099   3.081   6.019  15.889
   998G11  C0BU68100   3.199   5.957  15.851
   998G11  C0BX68101   3.237   5.835  15.899
   998G11  C0BT68102   3.285   6.024  15.761
   998G11  C0CD68103   3.405   5.959  15.721
   998G11  C0CB68104   3.438   5.831  15.766
   998G11  C0CE68105   3.489   6.030  15.641
   998G11  C0CK68106   3.461   6.160  15.596
   998G11  C0BS68107   3.338   6.222  15.629
   998G11  C0CJ68108   3.301   6.350  15.581
   998G11  C0BP68109   3.176   6.401  15.614
   998G11  C0CI68110   3.142   6.529  15.570
   998G11  C0CH68111   3.004   6.559  15.568
   998G11  H01268112   2.976   6.652  15.522
   998G11  C0BN68113   2.910   6.477  15.625
   998G11  C0CG68114   2.772   6.514  15.633
   998G11  C0CF68115   2.723   6.630  15.559
   998G11  H01368116   2.789   6.691  15.498
   998G11  O00G68117   2.593   6.656  15.552
   998G11  C0AA68118   2.513   6.587  15.636
   998G11  C0A968119   2.386   6.648  15.656
   998G11  H00U68120   2.359   6.740  15.605
   998G11  C0A868121   2.288   6.576  15.726
   998G11  H00V68122   2.190   6.618  15.710
   998G11  C0A768123   2.315   6.455  15.796
   998G11  C0A668124   2.457   6.410  15.791
   998G11  C0A568125   2.508   6.306  15.872
   998G11  C0A468126   2.430   6.232  15.970
   998G11  C0A368127   2.292   6.214  16.002
   998G11  C0A268128   2.191   6.255  15.917
   998G11  C0A168129   2.050   6.245  15.964
   998G11  C0A068130   1.971   6.140  16.041
   998G11  C09Z68131   1.831   6.161  16.044
   998G11  C09Y68132   1.750   6.046  16.078
   998G11  H00Y68133   1.644   6.057  16.060
   998G11  C09X68134   1.812   5.922  16.106
   998G11  C09W68135   1.730   5.804  16.115
   998G11  H00R68136   1.627   5.811  16.085
   998G11  C0AX68137   1.786   5.686  16.162
   998G11  H00S68138   1.720   5.600  16.170
   998G11  C0AW68139   1.920   5.679  16.194
   998G11  H00T68140   1.961   5.584  16.225
   998G11  C0AN68141   2.007   5.785  16.175
   998G11  C0AO68142   2.142   5.783  16.216
   998G11  C0AM68143   1.952   5.911  16.131
   998G11  C0B268144   1.760   6.283  16.008
   998G11  O00D68145   1.640   6.309  16.026
   998G11  C0B168146   1.840   6.381  15.949
   998G11  H00W68147   1.786   6.466  15.911
   998G11  C0AL68148   2.030   6.027  16.101
   998G11  C0AK68149   2.167   6.012  16.131
   998G11  C0B068150   1.979   6.362  15.925
   998G11  C0AZ68151   2.073   6.439  15.843
   998G11  H00X68152   2.044   6.534  15.800
   998G11  C0AJ68153   2.276   6.100  16.085
   998G11  C0AH68154   2.495   6.160  16.072
   998G11  C0AE68155   2.647   6.274  15.875
   998G11  C0AD68156   2.733   6.339  15.792
   998G11  C0AY68157   2.201   6.382  15.847
   998G11  C0AB68158   2.551   6.473  15.714
   998G11  C0AC68159   2.685   6.440  15.710
   998G11  C0BM68160   2.951   6.365  15.696
   998G11  C0CM68161   3.240   6.619  15.540
   998G11  C09M68162   3.352   6.562  15.469
   998G11  C09868163   3.409   6.640  15.366
   998G11  C08R68164   3.536   6.626  15.292
   998G11  C08Q68165   3.555   6.725  15.201
   998G11  C08P68166   3.666   6.799  15.135
   998G11  C08Y68167   3.641   6.931  15.097
   998G11  C09768168   3.528   6.997  15.139
   998G11  C09668169   3.549   7.128  15.162
   998G11  C09068170   3.668   7.151  15.091
   998G11  C09568171   3.736   7.273  15.086
   998G11  C09468172   3.853   7.288  15.006
   998G11  C08J68173   3.931   7.193  14.929
   998G11  C08I68174   4.055   7.257  14.922
   998G11  C08H68175   4.149   7.146  14.897
   998G11  C08G68176   4.089   7.030  14.954
   998G11  C08F68177   4.129   6.889  14.981
   998G11  C08E68178   4.261   6.845  14.963
   998G11  C05968179   4.370   6.915  14.898
   998G11  C05868180   4.496   6.853  14.871
   998G11  C05768181   4.594   6.908  14.787
   998G11  C05668182   4.574   7.040  14.741
   998G11  C05568183   4.473   7.119  14.792
   998G11  C05468184   4.444   7.222  14.694
   998G11  C05368185   4.529   7.200  14.579
   998G11  C05268186   4.520   7.251  14.446
   998G11  C05168187   4.414   7.346  14.408
   998G11  C05U68188   4.302   7.387  14.486
   998G11  C05T68189   4.243   7.342  14.615
   998G11  C06K68190   4.128   7.413  14.642
   998G11  H00J68191   4.076   7.409  14.736
   998G11  C06L68192   4.105   7.501  14.530
   998G11  H00I68193   4.029   7.577  14.521
   998G11  C05V68194   4.211   7.482  14.441
   998G11  C06J68195   4.218   7.540  14.319
   998G11  H00K68196   4.144   7.613  14.291
   998G11  C05X68197   4.316   7.498  14.233
   998G11  C06I68198   4.322   7.540  14.105
   998G11  H00L68199   4.241   7.606  14.077
   998G11  C04Z68200   4.410   7.493  14.005
   998G11  C06H68201   4.395   7.530  13.871
   998G11  H00H68202   4.321   7.599  13.834
   998G11  C04Y68203   4.482   7.473  13.771
   998G11  C06G68204   4.458   7.499  13.635
   998G11  O00968205   4.362   7.563  13.590
   998G11  O00868206   4.557   7.472  13.549
   998G11  C04P68207   4.642   7.365  13.581
   998G11  C04J68208   4.714   7.293  13.480
   998G11  C04Q68209   4.721   7.322  13.343
   998G11  H00E68210   4.653   7.389  13.292
   998G11  C04M68211   4.802   7.239  13.254
   998G11  C04R68212   4.812   7.250  13.109
   998G11  H00F68213   4.747   7.314  13.052
   998G11  C04S68214   4.905   7.175  13.043
   998G11  H00G68215   4.913   7.194  12.937
   998G11  O00768216   4.985   7.074  13.101
   998G11  C03V68217   4.961   7.059  13.232
   998G11  C03U68218   5.020   6.945  13.285
   998G11  O00668219   5.080   6.869  13.192
   998G11  C03F68220   5.141   6.758  13.239
   998G11  C03E68221   5.147   6.723  13.375
   998G11  C03D68222   5.087   6.810  13.470
   998G11  C03C68223   5.095   6.777  13.604
   998G11  C03B68224   5.155   6.656  13.633
   998G11  C03A68225   5.179   6.635  13.773
   998G11  C03968226   5.111   6.703  13.878
   998G11  C03868227   5.133   6.618  13.995
   998G11  C03768228   5.213   6.512  13.946
   998G11  C03668229   5.259   6.422  14.031
   998G11  C02R68230   5.332   6.304  14.008
   998G11  C03568231   5.326   6.237  14.136
   998G11  C03R68232   5.253   6.304  14.229
   998G11  C03S68233   5.191   6.249  14.332
   998G11  C04968234   5.091   6.322  14.390
   998G11  C04868235   5.061   6.449  14.334
   998G11  C03P68236   5.111   6.497  14.212
   998G11  C04768237   4.969   6.526  14.411
   998G11  C04668238   4.937   6.659  14.397
   998G11  C04568239   4.958   6.747  14.287
   998G11  C03T68240   5.015   6.727  14.163
   998G11  C04468241   4.999   6.854  14.099
   998G11  C04368242   4.961   6.950  14.187
   998G11  C04268243   4.883   7.044  14.121
   998G11  C04168244   4.907   7.009  13.981
   998G11  C04068245   4.868   7.093  13.870
   998G11  C03Z68246   4.900   7.071  13.727
   998G11  C04H68247   4.815   7.164  13.661
   998G11  C04G68248   4.744   7.235  13.754
   998G11  C03N68249   4.967   6.974  13.643
   998G11  C03Y68250   4.954   7.001  13.507
   998G11  C03X68251   4.873   7.104  13.449
   998G11  C04F68252   4.769   7.195  13.878
   998G11  C04E68253   4.686   7.251  13.986
   998G11  C04O68254   4.590   7.351  13.945
   998G11  C04D68255   4.691   7.214  14.127
   998G11  C04V68256   4.603   7.275  14.218
   998G11  C04W68257   4.503   7.368  14.177
   998G11  C04C68258   4.780   7.122  14.187
   998G11  C04L68259   4.728   7.124  14.327
   998G11  C04U68260   4.782   7.041  14.434
   998G11  C05Q68261   4.725   7.027  14.561
   998G11  C05P68262   4.766   6.902  14.617
   998G11  C04T68263   4.842   6.835  14.524
   998G11  C04B68264   4.863   6.924  14.419
   998G11  C03M68265   4.992   6.894  13.962
   998G11  C04A68266   4.923   6.880  14.305
   998G11  C05H68267   4.886   6.701  14.514
   998G11  C05G68268   4.861   6.589  14.593
   998G11  C05F68269   4.807   6.596  14.725
   998G11  C05E68270   4.746   6.480  14.786
   998G11  C05L68271   4.752   6.334  14.766
   998G11  C05K68272   4.852   6.272  14.682
   998G11  C05J68273   4.919   6.334  14.573
   998G11  C06668274   4.870   6.129  14.695
   998G11  C06568275   4.795   6.063  14.792
   998G11  C06468276   4.691   6.123  14.862
   998G11  C06N68277   4.817   5.921  14.811
   998G11  C06968278   4.921   5.854  14.740
   998G11  C06P68279   4.936   5.715  14.761
   998G11  C06R68280   5.035   5.644  14.683
   998G11  C06B68281   5.111   5.714  14.595
   998G11  C06S68282   5.187   5.642  14.499
   998G11  C02G68283   5.258   5.706  14.400
   998G11  C02F68284   5.324   5.631  14.296
   998G11  C02768285   5.323   5.492  14.302
   998G11  C02668286   5.385   5.421  14.200
   998G11  C00E68287   5.378   5.285  14.202
   998G11  C00D68288   5.423   5.215  14.095
   998G11  C00C68289   5.416   5.080  14.100
   998G11  C00B68290   5.344   5.006  14.187
   998G11  C01568291   5.297   5.075  14.300
   998G11  C07F68292   5.237   5.009  14.402
   998G11  C07E68293   5.179   5.080  14.507
   998G11  C06W68294   5.190   5.216  14.509
   998G11  C06V68295   5.260   5.284  14.412
   998G11  C06X68296   5.123   5.293  14.607
   998G11  C07B68297   5.040   5.224  14.695
   998G11  C07C68298   5.033   5.085  14.698
   998G11  C0FU68299   4.962   5.017  14.794
   998G11  C0F768300   4.966   4.879  14.802
   998G11  C0F668301   4.883   4.814  14.893
   998G11  C0F868302   4.898   4.678  14.909
   998G11  C0F968303   4.834   4.616  15.014
   998G11  C0FA68304   4.847   4.476  15.029
   998G11  C0FZ68305   4.916   4.403  14.933
   998G11  C0G068306   4.930   4.262  14.940
   998G11  C0GD68307   4.869   4.192  15.049
   998G11  C0FC68308   4.802   4.269  15.144
   998G11  C0GH68309   4.749   4.205  15.254
   998G11  C0EY68310   4.659   4.278  15.338
   998G11  C0EX68311   4.605   4.212  15.453
   998G11  C0EW68312   4.515   4.280  15.534
   998G11  C0FR68313   4.487   4.227  15.664
   998G11  H01D68314   4.434   4.282  15.740
   998G11  C0FS68315   4.541   4.112  15.711
   998G11  H01C68316   4.529   4.070  15.810
   998G11  C0GJ68317   4.627   4.041  15.619
   998G11  H01N68318   4.671   3.946  15.647
   998G11  C0EV68319   4.481   4.415  15.503
   998G11  C0FT68320   4.389   4.485  15.578
   998G11  H01E68321   4.338   4.429  15.656
   998G11  C0EU68322   4.536   4.480  15.389
   998G11  C0ET68323   4.511   4.613  15.354
   998G11  C0EI68324   4.572   4.691  15.260
   998G11  C0F168325   4.672   4.620  15.194
   998G11  C0F068326   4.700   4.483  15.214
   998G11  C0EH68327   4.555   4.828  15.255
   998G11  C0EG68328   4.460   4.901  15.339
   998G11  C0EJ68329   4.634   4.893  15.157
   998G11  C0F368330   4.721   4.822  15.073
   998G11  C0EK68331   4.625   5.036  15.149
   998G11  C0EL68332   4.535   5.109  15.241
   998G11  C0EM68333   4.549   5.251  15.209
   998G11  C0EN68334   4.642   5.306  15.120
   998G11  C07I68335   4.628   5.435  15.104
   998G11  C07468336   4.701   5.509  15.010
   998G11  C07368337   4.675   5.640  15.001
   998G11  C07268338   4.755   5.713  14.915
   998G11  C07568339   4.797   5.438  14.943
   998G11  C07668340   4.805   5.300  14.951
   998G11  C07868341   4.882   5.228  14.867
   998G11  C07G68342   4.872   5.511  14.855
   998G11  C07068343   4.958   5.435  14.779
   998G11  C07Z68344   4.531   5.486  15.189
   998G11  C07768345   4.722   5.230  15.036
   998G11  C0EO68346   4.710   5.097  15.051
   998G11  C0F468347   4.799   5.020  14.971
   998G11  C0EQ68348   4.421   4.679  15.435
   998G11  C0FQ68349   4.654   4.087  15.491
   998G11  C0GI68350   4.731   4.013  15.401
   998G11  H01L68351   4.748   3.908  15.421
   998G11  C0EZ68352   4.627   4.413  15.308
   998G11  C0GG68353   4.772   4.068  15.278
   998G11  C0GF68354   4.841   3.995  15.179
   998G11  H01M68355   4.874   3.892  15.192
   998G11  C0GE68356   4.890   4.055  15.064
   998G11  H01K68357   4.945   4.005  14.985
   998G11  O00J68358   4.993   4.188  14.846
   998G11  C0GA68359   5.035   4.252  14.730
   998G11  C0G968360   5.075   4.179  14.613
   998G11  H01H68361   5.065   4.072  14.623
   998G11  C0G868362   5.119   4.237  14.495
   998G11  C0G768363   5.164   4.164  14.381
   998G11  H01I68364   5.171   4.056  14.377
   998G11  O00I68365   5.208   4.228  14.267
   998G11  C0G668366   5.227   4.366  14.272
   998G11  H01J68367   5.242   4.404  14.172
   998G11  C02D68368   5.193   4.444  14.385
   998G11  C02C68369   5.203   4.586  14.392
   998G11  C01768370   5.271   4.661  14.285
   998G11  C01668371   5.286   4.801  14.290
   998G11  O00168372   5.324   4.599  14.172
   998G11  C01868373   5.349   4.658  14.051
   998G11  C00968374   5.379   4.796  14.061
   998G11  C00868375   5.428   4.881  13.956
   998G11  C00768376   5.462   4.861  13.817
   998G11  C00668377   5.415   4.750  13.745
   998G11  C00568378   5.428   4.736  13.601
   998G11  C00468379   5.473   4.831  13.497
   998G11  C00368380   5.501   4.980  13.503
   998G11  C00268381   5.536   5.051  13.384
   998G11  C00P68382   5.549   5.195  13.393
   998G11  C00O68383   5.578   5.266  13.277
   998G11  C00N68384   5.590   5.403  13.272
   998G11  C01068385   5.582   5.472  13.153
   998G11  C01168386   5.561   5.608  13.147
   998G11  C01Q68387   5.552   5.677  13.026
   998G11  C01U68388   5.551   5.608  12.900
   998G11  C01268389   5.575   5.471  12.911
   998G11  H00068390   5.577   5.412  12.820
   998G11  C01V68391   5.535   5.691  12.789
   998G11  H00768392   5.519   5.645  12.693
   998G11  O00568393   5.521   5.823  12.790
   998G11  C01W68394   5.478   5.878  12.906
   998G11  C03168395   5.403   5.995  12.903
   998G11  C03268396   5.359   6.050  13.028
   998G11  H00A68397   5.291   6.134  13.018
   998G11  C03368398   5.393   5.984  13.146
   998G11  H00B68399   5.370   6.020  13.245
   998G11  C01O68400   5.483   5.870  13.148
   998G11  C01N68401   5.537   5.820  13.269
   998G11  C01M68402   5.540   5.888  13.396
   998G11  C01L68403   5.513   6.023  13.460
   998G11  C01K68404   5.533   6.005  13.600
   998G11  C01Y68405   5.480   6.092  13.700
   998G11  C02I68406   5.422   6.210  13.658
   998G11  C02N68407   5.364   6.289  13.760
   998G11  C02M68408   5.308   6.413  13.721
   998G11  C02L68409   5.292   6.452  13.585
   998G11  C02K68410   5.355   6.374  13.490
   998G11  C02U68411   5.349   6.416  13.354
   998G11  C02V68412   5.267   6.525  13.315
   998G11  C03H68413   5.245   6.554  13.180
   998G11  H00C68414   5.285   6.495  13.099
   998G11  C02W68415   5.433   6.358  13.263
   998G11  C02X68416   5.490   6.235  13.304
   998G11  C02Y68417   5.566   6.201  13.186
   998G11  H00868418   5.629   6.115  13.169
   998G11  C02Z68419   5.542   6.302  13.079
   998G11  O00468420   5.573   6.296  12.962
   998G11  O00368421   5.466   6.395  13.140
   998G11  C02J68422   5.417   6.247  13.521
   998G11  C01Z68423   5.484   6.034  13.831
   998G11  C02068424   5.509   5.895  13.849
   998G11  C01I68425   5.555   5.814  13.748
   998G11  C01H68426   5.564   5.682  13.747
   998G11  C00K68427   5.593   5.610  13.632
   998G11  C01S68428   5.600   5.672  13.508
   998G11  C01468429   5.590   5.608  13.389
   998G11  C00J68430   5.583   5.474  13.631
   998G11  C00I68431   5.557   5.404  13.750
   998G11  C00H68432   5.529   5.479  13.869
   998G11  C00G68433   5.485   5.410  13.982
   998G11  C00S68434   5.541   5.267  13.744
   998G11  C00T68435   5.506   5.212  13.864
   998G11  C00U68436   5.495   5.075  13.866
   998G11  C00R68437   5.531   5.192  13.628
   998G11  C00L68438   5.580   5.401  13.513
   998G11  C02868439   5.527   5.616  13.865
   998G11  C02368440   5.484   5.689  13.968
   998G11  C02468441   5.435   5.623  14.079
   998G11  C02168442   5.475   5.829  13.963
   998G11  C02268443   5.423   5.901  14.066
   998G11  C02H68444   5.380   5.833  14.183
   998G11  C03068445   5.315   5.906  14.282
   998G11  C03468446   5.292   6.039  14.265
   998G11  C02P68447   5.398   6.036  14.046
   998G11  C02B68448   5.418   6.103  13.921
   998G11  C01J68449   5.569   5.876  13.625
   998G11  C01X68450   5.478   6.161  13.426
   998G11  C01T68451   5.589   5.814  13.506
   998G11  H00968452   5.387   6.045  12.809
   998G11  C01P68453   5.516   5.808  13.025
   998G11  C01R68454   5.570   5.679  13.269
   998G11  C00Z68455   5.578   5.398  13.029
   998G11  O00068456   5.593   5.262  13.036
   998G11  C00M68457   5.580   5.471  13.394
   998G11  C00Y68458   5.587   5.198  13.155
   998G11  C01368459   5.584   5.058  13.148
   998G11  H00168460   5.602   4.999  13.059
   998G11  C00Q68461   5.553   5.261  13.510
   998G11  C00168462   5.551   4.980  13.259
   998G11  C00068463   5.522   4.846  13.257
   998G11  H00668464   5.522   4.804  13.158
   998G11  C00W68465   5.504   5.054  13.625
   998G11  C01G68466   5.483   4.769  13.369
   998G11  H00568467   5.463   4.668  13.338
   998G11  C01C68468   5.383   4.598  13.578
   998G11  H00268469   5.383   4.552  13.481
   998G11  C01B68470   5.332   4.539  13.694
   998G11  C01D68471   5.273   4.411  13.716
   998G11  H00368472   5.246   4.344  13.636
   998G11  C01E68473   5.242   4.384  13.844
   998G11  H00468474   5.193   4.291  13.869
   998G11  O00268475   5.273   4.460  13.951
   998G11  C01A68476   5.363   4.626  13.798
   998G11  C00V68477   5.490   4.989  13.757
   998G11  C01968478   5.338   4.583  13.931
   998G11  C02E68479   5.157   4.662  14.503
   998G11  C0FX68480   5.094   4.597  14.606
   998G11  C0FW68481   5.036   4.670  14.709
   998G11  C0GB68482   5.089   4.458  14.603
   998G11  C0G368483   5.166   4.800  14.504
   998G11  C07H68484   5.105   4.872  14.607
   998G11  C0GC68485   5.132   4.380  14.493
   998G11  C0G268486   5.033   4.395  14.716
   998G11  C0G168487   4.973   4.467  14.821
   998G11  C0FB68488   4.785   4.411  15.132
   998G11  C0F268489   4.740   4.685  15.092
   998G11  C0FY68490   4.968   4.607  14.813
   998G11  C0F568491   4.804   4.884  14.979
   998G11  C0FV68492   5.038   4.806  14.707
   998G11  C07968493   4.876   5.087  14.873
   998G11  C07A68494   4.960   5.294  14.779
   998G11  C06Y68495   5.115   5.431  14.602
   998G11  C07D68496   5.103   5.012  14.604
   998G11  C01F68497   5.232   4.868  14.400
   998G11  C00A68498   5.341   4.865  14.181
   998G11  C00X68499   5.456   5.014  13.984
   998G11  C00F68500   5.472   5.278  13.983
   998G11  C02968501   5.315   5.215  14.306
   998G11  C02568502   5.436   5.487  14.090
   998G11  C06U68503   5.263   5.426  14.409
   998G11  C02A68504   5.387   5.698  14.189
   998G11  C05Y68505   5.252   5.847  14.393
   998G11  C05Z68506   5.172   5.918  14.481
   998G11  C06068507   5.145   6.057  14.462
   998G11  C06268508   5.049   6.135  14.533
   998G11  C06T68509   5.189   5.500  14.501
   998G11  C06A68510   5.099   5.852  14.578
   998G11  C06Z68511   5.039   5.504  14.691
   998G11  C06Q68512   4.853   5.645  14.848
   998G11  C06868513   5.003   5.927  14.651
   998G11  C06768514   4.972   6.061  14.625
   998G11  C06368515   4.670   6.256  14.851
   998G11  C06C68516   4.566   6.312  14.927
   998G11  C06D68517   4.545   6.446  14.923
   998G11  C06E68518   4.430   6.514  14.971
   998G11  C07Q68519   4.343   6.437  15.038
   998G11  C07P68520   4.367   6.298  15.060
   998G11  C07T68521   4.281   6.221  15.131
   998G11  C07U68522   4.311   6.086  15.160
   998G11  C07V68523   4.232   6.017  15.244
   998G11  C08468524   4.117   6.076  15.297
   998G11  C08C68525   4.082   6.205  15.261
   998G11  C08B68526   3.972   6.262  15.308
   998G11  C08A68527   3.946   6.392  15.276
   998G11  C08968528   4.019   6.473  15.194
   998G11  C08868529   3.976   6.598  15.158
   998G11  C08768530   4.066   6.681  15.090
   998G11  C08668531   4.199   6.635  15.063
   998G11  C08X68532   3.846   6.645  15.180
   998G11  C08T68533   3.770   6.565  15.276
   998G11  C08D68534   4.142   6.417  15.154
   998G11  C08U68535   3.829   6.448  15.324
   998G11  C08V68536   3.738   6.373  15.395
   998G11  C0CY68537   3.766   6.243  15.425
   998G11  C0CX68538   3.668   6.174  15.491
   998G11  C0CW68539   3.693   6.037  15.525
   998G11  C0CV68540   3.812   5.982  15.487
   998G11  C0D468541   3.907   6.059  15.420
   998G11  C0CU68542   3.843   5.850  15.525
   998G11  C0CT68543   3.759   5.773  15.604
   998G11  C0CS68544   3.640   5.833  15.642
   998G11  C0D668545   3.967   5.808  15.490
   998G11  C0EC68546   4.063   5.881  15.414
   998G11  C07X68547   4.181   5.819  15.366
   998G11  C0DL68548   4.003   5.683  15.535
   998G11  C0DK68549   4.122   5.626  15.492
   998G11  C0DN68550   4.115   5.498  15.536
   998G11  C0D868551   3.928   5.592  15.612
   998G11  C08W68552   3.617   6.438  15.412
   998G11  C0CQ68553   3.512   6.367  15.473
   998G11  C09368554   3.885   6.190  15.386
   998G11  C09268555   4.025   6.003  15.371
   998G11  C08568556   4.167   6.280  15.173
   998G11  C07S68557   4.225   6.496  15.085
   998G11  C06F68558   4.414   6.656  14.968
   998G11  C07O68559   4.480   6.237  15.004
   998G11  C07N68560   4.506   6.104  15.021
   998G11  C05D68561   4.640   6.525  14.869
   998G11  C05C68562   4.628   6.663  14.869
   998G11  C05N68563   4.721   6.707  14.775
   998G11  C05M68564   4.906   6.475  14.529
   998G11  C05I68565   5.024   6.265  14.499
   998G11  C06168566   5.207   6.114  14.353
   998G11  C02Q68567   5.338   6.100  14.151
   998G11  C02O68568   5.376   6.235  13.892
   998G11  C03Q68569   5.210   6.412  14.164
   998G11  C03O68570   5.081   6.615  14.128
   998G11  C03L68571   5.043   6.825  13.848
   998G11  C02S68572   5.239   6.511  13.812
   998G11  C02T68573   5.223   6.568  13.543
   998G11  C03K68574   5.032   6.862  13.701
   998G11  C03I68575   5.211   6.604  13.410
   998G11  C03G68576   5.188   6.674  13.137
   998G11  H00D68577   5.174   6.698  13.033
   998G11  C03J68578   5.017   6.918  13.424
   998G11  C03W68579   4.882   7.139  13.314
   998G11  C04I68580   4.794   7.184  13.526
   998G11  C04K68581   4.658   7.332  13.713
   998G11  C04N68582   4.581   7.387  13.810
   998G11  C04X68583   4.504   7.402  14.041
   998G11  C05068584   4.412   7.404  14.275
   998G11  C05W68585   4.616   7.219  14.344
   998G11  C05S68586   4.311   7.254  14.713
   998G11  C05R68587   4.616   7.093  14.620
   998G11  C05O68588   4.704   6.834  14.727
   998G11  C05B68589   4.514   6.729  14.914
   998G11  C05A68590   4.364   7.053  14.846
   998G11  C07R68591   4.291   6.714  15.001
   998G11  C08N68592   4.032   6.808  15.045
   998G11  C08M68593   3.900   6.853  15.065
   998G11  C08L68594   3.859   6.983  15.027
   998G11  C09168595   4.267   7.153  14.814
   998G11  C09K68596   4.062   7.377  15.012
   998G11  H00M68597   4.148   7.429  15.053
   998G11  C08K68598   3.956   7.062  14.963
   998G11  C09J68599   3.928   7.397  15.057
   998G11  C09I68600   3.845   7.463  15.155
   998G11  C09L68601   3.853   7.592  15.217
   998G11  H00N68602   3.939   7.655  15.198
   998G11  C09Q68603   3.740   7.631  15.284
   998G11  H00O68604   3.738   7.729  15.330
   998G11  O00B68605   3.624   7.552  15.309
   998G11  C09G68606   3.617   7.423  15.265
   998G11  C09F68607   3.501   7.343  15.306
   998G11  O00A68608   3.417   7.410  15.392
   998G11  C09P68609   3.307   7.345  15.431
   998G11  H00P68610   3.221   7.406  15.456
   998G11  C09O68611   3.300   7.199  15.441
   998G11  C09D68612   3.372   7.129  15.343
   998G11  C09C68613   3.368   6.986  15.304
   998G11  C09N68614   3.307   6.875  15.374
   998G11  C09T68615   3.254   6.879  15.503
   998G11  C09S68616   3.220   6.994  15.575
   998G11  C0CP68617   3.154   6.939  15.686
   998G11  C0CN68618   3.142   6.800  15.689
   998G11  C0CO68619   3.085   6.736  15.797
   998G11  H01468620   3.082   6.628  15.807
   998G11  C0CZ68621   3.027   6.823  15.897
   998G11  H01568622   2.992   6.766  15.981
   998G11  C0D068623   3.038   6.966  15.893
   998G11  C0G568624   2.989   7.056  15.997
   998G11  H01F68625   2.937   7.028  16.087
   998G11  C0G468626   3.003   7.188  15.983
   998G11  H01G68627   2.948   7.254  16.049
   998G11  O00H68628   3.074   7.249  15.882
   998G11  C0D268629   3.118   7.162  15.780
   998G11  C09V68630   3.171   7.220  15.655
   998G11  H00Q68631   3.182   7.327  15.657
   998G11  C0D168632   3.105   7.025  15.785
   998G11  C09R68633   3.232   7.136  15.552
   998G11  C09H68634   3.728   7.386  15.178
   998G11  C09E68635   3.478   7.207  15.269
   998G11  C09B68636   3.434   6.929  15.206
   998G11  C08Z68637   3.729   7.027  15.064
   998G11  C08O68638   3.803   6.762  15.124
   998G11  C09A68639   3.425   6.790  15.196
   998G11  C08S68640   3.640   6.558  15.338
   998G11  C09968641   3.351   6.755  15.303
   998G11  C09U68642   3.218   6.758  15.572
   998G11  C0BO68643   3.081   6.323  15.680
   998G11  C0CL68644   3.388   6.423  15.498
   998G11  C0D368645   3.546   6.237  15.524
   998G11  C0D568646   3.606   5.964  15.603
   998G11  C0BR68647   3.245   6.147  15.705
   998G11  C0BQ68648   3.121   6.201  15.736
   998G11  C0BL68649   2.865   6.296  15.785
   998G11  C0AF68650   2.697   6.172  15.956
   998G11  C0BH68651   2.998   5.956  15.982
   998G11  C0BG68652   3.034   5.830  16.042
   998G11  C0BD68653   2.834   5.833  16.170
   998G11  C0AG68654   2.618   6.108  16.048
   998G11  C0AI68655   2.402   6.080  16.137
   998G11  C0AV68656   2.222   5.901  16.205
   998G11  C0BB68657   2.525   5.761  16.356
   998G11  O00C68658   2.193   5.658  16.268
   998G11  C0BC68659   2.536   5.633  16.399
   998G11  C0B968660   2.741   5.763  16.252
   998G11  O00E68661   2.908   5.443  16.292
   998G11  C0CA68662   3.027   5.383  16.266
   998G11  O00F68663   3.052   5.270  16.321
   998G11  C0BF68664   2.951   5.770  16.130
   998G11  C0C568665   3.121   5.447  16.179
   998G11  C0C468666   3.236   5.377  16.140
   998G11  H01168667   3.263   5.277  16.172
   998G11  C0C868668   3.149   5.769  15.992
   998G11  C0C268669   3.324   5.451  16.047
   998G11  C0C368670   3.432   5.389  15.983
   998G11  C0DY68671   3.470   5.254  15.985
   998G11  H01668672   3.427   5.172  16.041
   998G11  C0DX68673   3.583   5.236  15.892
   998G11  C0DW68674   3.598   5.109  15.828
   998G11  C0BY68675   3.352   5.768  15.856
   998G11  C0DB68676   3.516   5.450  15.889
   998G11  C0CC68677   3.557   5.766  15.725
   998G11  C0D768678   3.790   5.638  15.643
   998G11  C0DZ68679   3.620   5.364  15.835
   998G11  C0DM68680   4.004   5.477  15.621
   998G11  C0DQ68681   3.810   5.178  15.701
   998G11  C0DV68682   3.707   5.090  15.743
   998G11  C0E068683   3.528   4.981  15.838
   998G11  C0FO68684   3.703   4.675  15.865
   998G11  C0E368685   3.482   4.915  15.958
   998G11  H01768686   3.461   4.963  16.053
   998G11  C0GV68687   3.664   4.600  15.977
   998G11  C0ES68688   3.839   4.679  15.824
   998G11  C0GQ68689   3.969   4.443  16.084
   998G11  C0FJ68690   4.294   4.546  15.937
   998G11  C0ED68691   4.119   4.689  15.765
   998G11  C0ER68692   4.370   4.619  15.549
   998G11  C0EP68693   4.393   4.811  15.432
   998G11  C0E668694   4.066   4.904  15.630
   998G11  C0DE68695   4.156   5.198  15.556
   998G11  C0EA68696   4.437   5.041  15.330
   998G11  C0DF68697   4.255   5.297  15.525
   998G11  C08068698   4.482   5.368  15.256
   998G11  C0DO68699   4.224   5.432  15.491
   998G11  C0DJ68700   4.211   5.687  15.400
   998G11  C07K68701   4.508   5.629  15.176
   998G11  C07W68702   4.259   5.884  15.271
   998G11  C08368703   4.428   6.028  15.112
   998G11  C07J68704   4.583   5.702  15.083
   998G11  C06O68705   4.734   5.848  14.900
   998G11  C06M68706   4.610   6.045  14.951
  1008G11  C07168707   8.388   9.855  12.472
  1008G11  C07L68708   8.332   9.916  12.584
  1008G11  C07M68709   8.212   9.875  12.636
  1008G11  C07Y68710   8.158   9.923  12.753
  1008G11  C08168711   8.227  10.025  12.831
  1008G11  C08268712   8.168  10.070  12.958
  1008G11  C0DI68713   8.212  10.179  13.052
  1008G11  C0DH68714   8.336  10.243  13.070
  1008G11  C0DG68715   8.318  10.352  13.169
  1008G11  C0E968716   8.414  10.379  13.272
  1008G11  C0E868717   8.328  10.415  13.392
  1008G11  C0E768718   8.352  10.493  13.516
  1008G11  C0EB68719   8.480  10.555  13.530
  1008G11  C0EF68720   8.517  10.661  13.621
  1008G11  C0EE68721   8.444  10.766  13.681
  1008G11  C0FD68722   8.501  10.891  13.685
  1008G11  C0FE68723   8.618  10.939  13.610
  1008G11  H01B68724   8.655  10.871  13.535
  1008G11  C0FF68725   8.683  11.060  13.628
  1008G11  H01A68726   8.754  11.085  13.551
  1008G11  C0FG68727   8.629  11.145  13.721
  1008G11  H01868728   8.677  11.240  13.740
  1008G11  C0FH68729   8.511  11.116  13.794
  1008G11  C0FI68730   8.453  11.196  13.891
  1008G11  H01968731   8.503  11.290  13.910
  1008G11  O00K68732   8.341  11.164  13.963
  1008G11  C0FL68733   8.284  11.044  13.930
  1008G11  C0FK68734   8.350  10.945  13.856
  1008G11  C0FM68735   8.292  10.818  13.846
  1008G11  C0FN68736   8.178  10.788  13.933
  1008G11  C0FP68737   8.114  10.895  14.000
  1008G11  C0GO68738   7.999  10.876  14.076
  1008G11  C0GN68739   7.914  10.977  14.112
  1008G11  C0GR68740   7.964  11.109  14.102
  1008G11  C0GS68741   7.890  11.220  14.138
  1008G11  H01Q68742   7.935  11.319  14.131
  1008G11  C0GT68743   7.752  11.198  14.162
  1008G11  H01O68744   7.685  11.282  14.177
  1008G11  C0GU68745   7.696  11.067  14.172
  1008G11  H01P68746   7.591  11.049  14.191
  1008G11  O00L68747   8.091  11.128  14.054
  1008G11  C0GM68748   7.776  10.953  14.154
  1008G11  C0GL68749   7.742  10.813  14.158
  1008G11  H01R68750   7.638  10.800  14.185
  1008G11  C0GK68751   7.834  10.712  14.133
  1008G11  C0GP68752   7.826  10.569  14.110
  1008G11  C0E268753   7.961  10.521  14.089
  1008G11  C0E168754   7.947  10.406  13.994
  1008G11  C0DU68755   8.006  10.392  13.865
  1008G11  C0DT68756   8.110  10.456  13.798
  1008G11  C0E468757   8.169  10.571  13.842
  1008G11  C0E568758   8.261  10.605  13.745
  1008G11  C0DS68759   8.149  10.431  13.663
  1008G11  C0DR68760   8.077  10.333  13.590
  1008G11  C0DD68761   8.093  10.306  13.455
  1008G11  C0DC68762   7.968  10.219  13.432
  1008G11  C0DP68763   7.878  10.204  13.545
  1008G11  C0DA68764   7.751  10.131  13.565
  1008G11  C0D968765   7.683  10.023  13.481
  1008G11  C0CR68766   7.571   9.948  13.534
  1008G11  C0C068767   7.513   9.974  13.655
  1008G11  C0BZ68768   7.407   9.914  13.712
  1008G11  C0C168769   7.351   9.958  13.832
  1008G11  C0C768770   7.259   9.879  13.898
  1008G11  C0C668771   7.220   9.913  14.031
  1008G11  C0C968772   7.140   9.826  14.100
  1008G11  C0B868773   7.097   9.852  14.235
  1008G11  C0B768774   7.033   9.759  14.319
  1008G11  C0B668775   6.984   9.755  14.460
  1008G11  C0B568776   6.890   9.850  14.502
  1008G11  H00Z68777   6.868   9.947  14.460
  1008G11  C0B468778   6.796   9.784  14.587
  1008G11  H01068779   6.695   9.807  14.619
  1008G11  C0B368780   6.845   9.655  14.620
  1008G11  C0AP68781   6.778   9.524  14.630
  1008G11  C0AQ68782   6.843   9.454  14.526
  1008G11  C0AR68783   6.779   9.349  14.461
  1008G11  C0AS68784   6.809   9.342  14.328
  1008G11  C0AT68785   6.892   9.425  14.259
  1008G11  C0BA68786   6.954   9.527  14.322
  1008G11  C0AU68787   6.904   9.412  14.121
  1008G11  C0BE68788   6.984   9.501  14.053
  1008G11  C0BI68789   6.999   9.482  13.916
  1008G11  C0BJ68790   6.939   9.375  13.853
  1008G11  C0BK68791   6.967   9.344  13.721
  1008G11  C0BW68792   7.057   9.425  13.655
  1008G11  C0BV68793   7.111   9.537  13.716
  1008G11  C0BU68794   7.198   9.621  13.645
  1008G11  C0BX68795   7.253   9.729  13.707
  1008G11  C0BT68796   7.233   9.591  13.512
  1008G11  C0CD68797   7.332   9.668  13.451
  1008G11  C0CB68798   7.394   9.775  13.518
  1008G11  C0CE68799   7.381   9.634  13.325
  1008G11  C0CK68800   7.320   9.520  13.258
  1008G11  C0BS68801   7.217   9.440  13.317
  1008G11  C0CJ68802   7.163   9.325  13.253
  1008G11  C0BP68803   7.077   9.243  13.328
  1008G11  C0CI68804   7.019   9.131  13.265
  1008G11  C0CH68805   6.962   9.042  13.358
  1008G11  H01268806   6.950   8.940  13.324
  1008G11  C0BN68807   6.912   9.079  13.485
  1008G11  C0CG68808   6.821   8.999  13.553
  1008G11  C0CF68809   6.784   8.865  13.500
  1008G11  H01368810   6.821   8.816  13.411
  1008G11  O00G68811   6.692   8.790  13.569
  1008G11  C0AA68812   6.643   8.837  13.689
  1008G11  C0A968813   6.535   8.765  13.741
  1008G11  H00U68814   6.490   8.681  13.690
  1008G11  C0A868815   6.489   8.797  13.869
  1008G11  H00V68816   6.408   8.735  13.904
  1008G11  C0A768817   6.548   8.897  13.952
  1008G11  C0A668818   6.645   8.983  13.886
  1008G11  C0A568819   6.706   9.095  13.938
  1008G11  C0A468820   6.682   9.130  14.073
  1008G11  C0A368821   6.603   9.090  14.189
  1008G11  C0A268822   6.500   8.996  14.190
  1008G11  C0A168823   6.445   8.952  14.312
  1008G11  C0A068824   6.427   8.994  14.450
  1008G11  C09Z68825   6.348   8.913  14.530
  1008G11  C09Y68826   6.325   8.954  14.667
  1008G11  H00Y68827   6.268   8.896  14.738
  1008G11  C09X68828   6.367   9.085  14.706
  1008G11  C09W68829   6.315   9.134  14.829
  1008G11  H00R68830   6.250   9.069  14.886
  1008G11  C0AX68831   6.352   9.262  14.880
  1008G11  H00S68832   6.300   9.296  14.969
  1008G11  C0AW68833   6.447   9.330  14.814
  1008G11  H00T68834   6.496   9.420  14.849
  1008G11  C0AN68835   6.506   9.282  14.692
  1008G11  C0AO68836   6.616   9.343  14.633
  1008G11  C0AM68837   6.452   9.164  14.629
  1008G11  C0B268838   6.290   8.789  14.494
  1008G11  O00D68839   6.223   8.722  14.571
  1008G11  C0B168840   6.312   8.747  14.358
  1008G11  H00W68841   6.257   8.660  14.325
  1008G11  C0AL68842   6.493   9.110  14.505
  1008G11  C0AK68843   6.603   9.183  14.449
  1008G11  C0B068844   6.395   8.822  14.275
  1008G11  C0AZ68845   6.421   8.792  14.141
  1008G11  H00X68846   6.385   8.701  14.096
  1008G11  C0AJ68847   6.639   9.161  14.309
  1008G11  C0AH68848   6.761   9.232  14.124
  1008G11  C0AE68849   6.796   9.175  13.864
  1008G11  C0AD68850   6.826   9.151  13.731
  1008G11  C0AY68851   6.491   8.905  14.085
  1008G11  C0AB68852   6.687   8.955  13.752
  1008G11  C0AC68853   6.775   9.035  13.678
  1008G11  C0BM68854   6.958   9.196  13.536
  1008G11  C0CM68855   7.024   9.112  13.125
  1008G11  C09M68856   7.124   9.192  13.049
  1008G11  C09868857   7.132   9.165  12.910
  1008G11  C08R68858   7.249   9.176  12.819
  1008G11  C08Q68859   7.231   9.135  12.690
  1008G11  C08P68860   7.317   9.077  12.588
  1008G11  C08Y68861   7.267   8.974  12.506
  1008G11  C09768862   7.151   8.904  12.541
  1008G11  C09668863   7.156   8.773  12.520
  1008G11  C09068864   7.268   8.755  12.441
  1008G11  C09568865   7.326   8.628  12.405
  1008G11  C09468866   7.445   8.618  12.330
  1008G11  C08J68867   7.563   8.696  12.308
  1008G11  C08I68868   7.602   8.681  12.174
  1008G11  C08H68869   7.679   8.798  12.133
  1008G11  C08G68870   7.658   8.894  12.243
  1008G11  C08F68871   7.690   9.035  12.270
  1008G11  C08E68872   7.780   9.108  12.187
  1008G11  C05968873   7.828   9.080  12.059
  1008G11  C05868874   7.918   9.166  11.995
  1008G11  C05768875   7.982   9.138  11.871
  1008G11  C05668876   7.943   9.022  11.809
  1008G11  C05568877   7.844   8.941  11.855
  1008G11  C05468878   7.852   8.813  11.802
  1008G11  C05368879   7.964   8.811  11.709
  1008G11  C05268880   8.025   8.707  11.638
  1008G11  C05168881   7.988   8.570  11.667
  1008G11  C05U68882   7.903   8.518  11.779
  1008G11  C05T68883   7.830   8.587  11.882
  1008G11  C06K68884   7.756   8.481  11.950
  1008G11  H00J68885   7.701   8.490  12.042
  1008G11  C06L68886   7.778   8.357  11.888
  1008G11  H00I68887   7.738   8.258  11.907
  1008G11  C05V68888   7.866   8.381  11.781
  1008G11  C06J68889   7.908   8.285  11.688
  1008G11  H00K68890   7.876   8.182  11.691
  1008G11  C05X68891   8.006   8.324  11.591
  1008G11  C06I68892   8.063   8.230  11.508
  1008G11  H00L68893   8.017   8.133  11.498
  1008G11  C04Z68894   8.174   8.259  11.426
  1008G11  C06H68895   8.237   8.154  11.350
  1008G11  H00H68896   8.195   8.055  11.350
  1008G11  C04Y68897   8.373   8.183  11.296
  1008G11  C06G68898   8.439   8.074  11.225
  1008G11  O00968899   8.387   7.963  11.196
  1008G11  O00868900   8.569   8.103  11.178
  1008G11  C04P68901   8.621   8.228  11.190
  1008G11  C04J68902   8.752   8.254  11.145
  1008G11  C04Q68903   8.842   8.165  11.086
  1008G11  H00E68904   8.800   8.073  11.050
  1008G11  C04M68905   8.977   8.197  11.063
  1008G11  C04R68906   9.081   8.111  11.008
  1008G11  H00F68907   9.053   8.011  10.975
  1008G11  C04S68908   9.209   8.156  10.992
  1008G11  H00G68909   9.276   8.080  10.953
  1008G11  O00768910   9.254   8.279  11.025
  1008G11  C03V68911   9.155   8.362  11.072
  1008G11  C03U68912   9.197   8.492  11.104
  1008G11  O00668913   9.330   8.523  11.072
  1008G11  C03F68914   9.378   8.636  11.115
  1008G11  C03E68915   9.301   8.733  11.190
  1008G11  C03D68916   9.161   8.712  11.209
  1008G11  C03C68917   9.083   8.805  11.273
  1008G11  C03B68918   9.154   8.914  11.326
  1008G11  C03A68919   9.078   9.016  11.388
  1008G11  C03968920   8.939   9.003  11.405
  1008G11  C03868921   8.909   9.133  11.470
  1008G11  C03768922   9.031   9.200  11.480
  1008G11  C03668923   9.040   9.319  11.537
  1008G11  C02R68924   9.155   9.384  11.582
  1008G11  C03568925   9.101   9.486  11.661
  1008G11  C03R68926   8.964   9.492  11.662
  1008G11  C03S68927   8.895   9.542  11.773
  1008G11  C04968928   8.766   9.497  11.785
  1008G11  C04868929   8.721   9.394  11.700
  1008G11  C03P68930   8.803   9.320  11.605
  1008G11  C04768931   8.588   9.364  11.725
  1008G11  C04668932   8.518   9.260  11.662
  1008G11  C04568933   8.554   9.165  11.572
  1008G11  C03T68934   8.679   9.125  11.514
  1008G11  C04468935   8.655   9.005  11.440
  1008G11  C04368936   8.512   8.985  11.437
  1008G11  C04268937   8.476   8.851  11.411
  1008G11  C04168938   8.612   8.795  11.373
  1008G11  C04068939   8.631   8.669  11.312
  1008G11  C03Z68940   8.756   8.616  11.262
  1008G11  C04H68941   8.720   8.483  11.232
  1008G11  C04G68942   8.586   8.459  11.261
  1008G11  C03N68943   8.894   8.656  11.247
  1008G11  C03Y68944   8.976   8.557  11.185
  1008G11  C03X68945   8.935   8.425  11.148
  1008G11  C04F68946   8.531   8.565  11.316
  1008G11  C04E68947   8.402   8.546  11.366
  1008G11  C04O68948   8.354   8.415  11.365
  1008G11  C04D68949   8.327   8.650  11.429
  1008G11  C04V68950   8.207   8.611  11.489
  1008G11  C04W68951   8.158   8.483  11.503
  1008G11  C04C68952   8.358   8.783  11.457
  1008G11  C04L68953   8.234   8.834  11.516
  1008G11  C04U68954   8.225   8.965  11.585
  1008G11  C05Q68955   8.127   9.007  11.673
  1008G11  C05P68956   8.167   9.132  11.721
  1008G11  C04T68957   8.296   9.168  11.677
  1008G11  C04B68958   8.330   9.066  11.586
  1008G11  C03M68959   8.725   8.895  11.375
  1008G11  C04A68960   8.459   9.070  11.534
  1008G11  C05H68961   8.389   9.259  11.715
  1008G11  C05G68962   8.383   9.356  11.824
  1008G11  C05F68963   8.263   9.389  11.897
  1008G11  C05E68964   8.256   9.484  12.007
  1008G11  C05L68965   8.355   9.564  12.082
  1008G11  C05K68966   8.489   9.582  12.040
  1008G11  C05J68967   8.559   9.522  11.926
  1008G11  C06668968   8.562   9.672  12.125
  1008G11  C06568969   8.503   9.736  12.238
  1008G11  C06468970   8.373   9.707  12.281
  1008G11  C06N68971   8.578   9.826  12.315
  1008G11  C06968972   8.714   9.851  12.287
  1008G11  C06P68973   8.786   9.928  12.386
  1008G11  C06R68974   8.925   9.927  12.372
  1008G11  C06B68975   8.987   9.876  12.259
  1008G11  C06S68976   9.126   9.876  12.250
  1008G11  C02G68977   9.186   9.819  12.143
  1008G11  C02F68978   9.326   9.832  12.125
  1008G11  C02768979   9.400   9.892  12.225
  1008G11  C02668980   9.539   9.898  12.213
  1008G11  C00E68981   9.610   9.955  12.314
  1008G11  C00D68982   9.747   9.947  12.308
  1008G11  C00C68983   9.822  10.006  12.408
  1008G11  C00B68984   9.771  10.064  12.518
  1008G11  C01568985   9.630  10.062  12.527
  1008G11  C07F68986   9.582  10.120  12.636
  1008G11  C07E68987   9.439  10.127  12.639
  1008G11  C06W68988   9.356  10.067  12.543
  1008G11  C06V68989   9.415  10.009  12.435
  1008G11  C06X68990   9.222  10.060  12.556
  1008G11  C07B68991   9.162  10.120  12.662
  1008G11  C07C68992   9.240  10.189  12.758
  1008G11  C0FU68993   9.180  10.243  12.868
  1008G11  C0F768994   9.252  10.293  12.974
  1008G11  C0F668995   9.189  10.336  13.094
  1008G11  C0F868996   9.270  10.386  13.191
  1008G11  C0F968997   9.210  10.430  13.311
  1008G11  C0FA68998   9.295  10.472  13.415
  1008G11  C0FZ68999   9.432  10.482  13.397
  1008G11  C0G069000   9.515  10.533  13.497
  1008G11  C0GD69001   9.467  10.560  13.622
  1008G11  C0FC69002   9.322  10.549  13.645
  1008G11  C0GH69003   9.268  10.592  13.763
  1008G11  C0EY69004   9.128  10.604  13.777
  1008G11  C0EX69005   9.071  10.651  13.894
  1008G11  C0EW69006   8.933  10.669  13.898
  1008G11  C0FR69007   8.871  10.715  14.019
  1008G11  H01D69008   8.767  10.737  14.041
  1008G11  C0FS69009   8.938  10.744  14.138
  1008G11  H01C69010   8.892  10.775  14.231
  1008G11  C0GJ69011   9.075  10.714  14.130
  1008G11  H01N69012   9.131  10.728  14.221
  1008G11  C0EV69013   8.854  10.642  13.786
  1008G11  C0FT69014   8.719  10.685  13.777
  1008G11  H01E69015   8.669  10.737  13.858
  1008G11  C0EU69016   8.914  10.575  13.676
  1008G11  C0ET69017   8.840  10.534  13.569
  1008G11  C0EI69018   8.877  10.474  13.453
  1008G11  C0F169019   9.019  10.471  13.441
  1008G11  C0F069020   9.100  10.513  13.547
  1008G11  C0EH69021   8.785  10.434  13.353
  1008G11  C0EG69022   8.643  10.439  13.364
  1008G11  C0EJ69023   8.848  10.389  13.232
  1008G11  C0F369024   8.991  10.383  13.223
  1008G11  C0EK69025   8.772  10.340  13.125
  1008G11  C0EL69026   8.626  10.327  13.142
  1008G11  C0EM69027   8.569  10.253  13.029
  1008G11  C0EN69028   8.642  10.224  12.913
  1008G11  C07I69029   8.570  10.159  12.818
  1008G11  C07469030   8.618  10.112  12.698
  1008G11  C07369031   8.538  10.029  12.623
  1008G11  C07269032   8.591   9.970  12.510
  1008G11  C07569033   8.753  10.113  12.693
  1008G11  C07669034   8.830  10.177  12.792
  1008G11  C07869035   8.965  10.182  12.781
  1008G11  C07G69036   8.810  10.047  12.589
  1008G11  C07069037   8.945  10.054  12.575
  1008G11  C07Z69038   8.439  10.140  12.865
  1008G11  C07769039   8.778  10.238  12.902
  1008G11  C0EO69040   8.842  10.289  13.014
  1008G11  C0F469041   8.979  10.294  13.000
  1008G11  C0EQ69042   8.699  10.553  13.578
  1008G11  C0FQ69043   9.147  10.675  14.011
  1008G11  C0GI69044   9.284  10.664  13.991
  1008G11  H01L69045   9.352  10.682  14.073
  1008G11  C0EZ69046   9.049  10.562  13.668
  1008G11  C0GG69047   9.350  10.625  13.870
  1008G11  C0GF69048   9.487  10.620  13.859
  1008G11  H01M69049   9.556  10.651  13.937
  1008G11  C0GE69050   9.548  10.591  13.734
  1008G11  H01K69051   9.655  10.596  13.718
  1008G11  O00J69052   9.644  10.549  13.480
  1008G11  C0GA69053   9.707  10.522  13.358
  1008G11  C0G969054   9.831  10.559  13.332
  1008G11  H01H69055   9.882  10.613  13.412
  1008G11  C0G869056   9.895  10.522  13.211
  1008G11  C0G769057  10.038  10.543  13.182
  1008G11  H01I69058  10.095  10.605  13.251
  1008G11  O00I69059  10.106  10.492  13.071
  1008G11  C0G669060  10.020  10.421  12.987
  1008G11  H01J69061  10.054  10.406  12.885
  1008G11  C02D69062   9.886  10.385  13.016
  1008G11  C02C69063   9.812  10.314  12.923
  1008G11  C01769064   9.876  10.239  12.817
  1008G11  C01669065   9.798  10.177  12.721
  1008G11  O00169066  10.014  10.209  12.818
  1008G11  C01869067  10.076  10.145  12.716
  1008G11  C00969068   9.996  10.096  12.610
  1008G11  C00869069  10.043  10.025  12.492
  1008G11  C00769070  10.168   9.978  12.446
  1008G11  C00669071  10.285   9.981  12.518
  1008G11  C00569072  10.409   9.936  12.464
  1008G11  C00469073  10.447   9.849  12.352
  1008G11  C00369074  10.366   9.797  12.241
  1008G11  C00269075  10.428   9.709  12.148
  1008G11  C00P69076  10.348   9.638  12.053
  1008G11  C00O69077  10.399   9.541  11.966
  1008G11  C00N69078  10.320   9.478  11.871
  1008G11  C01069079  10.375   9.376  11.790
  1008G11  C01169080  10.298   9.311  11.699
  1008G11  C01Q69081  10.355   9.221  11.610
  1008G11  C01U69082  10.491   9.182  11.624
  1008G11  C01269083  10.564   9.249  11.722
  1008G11  H00069084  10.671   9.233  11.728
  1008G11  C01V69085  10.536   9.077  11.546
  1008G11  H00769086  10.634   9.035  11.565
  1008G11  O00569087  10.464   9.021  11.442
  1008G11  C01W69088  10.332   9.058  11.433
  1008G11  C03169089  10.254   8.994  11.339
  1008G11  C03269090  10.127   9.042  11.306
  1008G11  H00A69091  10.078   9.017  11.214
  1008G11  C03369092  10.068   9.138  11.389
  1008G11  H00B69093   9.967   9.167  11.365
  1008G11  C01O69094  10.136   9.187  11.502
  1008G11  C01N69095  10.077   9.269  11.595
  1008G11  C01M69096   9.927   9.299  11.591
  1008G11  C01L69097   9.794   9.258  11.535
  1008G11  C01K69098   9.702   9.361  11.573
  1008G11  C01Y69099   9.561   9.355  11.568
  1008G11  C02I69100   9.497   9.247  11.506
  1008G11  C02N69101   9.357   9.250  11.512
  1008G11  C02M69102   9.293   9.143  11.442
  1008G11  C02L69103   9.363   9.042  11.381
  1008G11  C02K69104   9.504   9.038  11.390
  1008G11  C02U69105   9.575   8.933  11.324
  1008G11  C02V69106   9.506   8.846  11.241
  1008G11  C03H69107   9.577   8.752  11.165
  1008G11  H00C69108   9.679   8.770  11.132
  1008G11  C02W69109   9.712   8.912  11.354
  1008G11  C02X69110   9.769   9.005  11.436
  1008G11  C02Y69111   9.891   8.944  11.472
  1008G11  H00869112   9.962   8.972  11.549
  1008G11  C02Z69113   9.902   8.811  11.405
  1008G11  O00469114   9.993   8.731  11.400
  1008G11  O00369115   9.787   8.800  11.338
  1008G11  C02J69116   9.575   9.143  11.458
  1008G11  C01Z69117   9.503   9.451  11.648
  1008G11  C02069118   9.575   9.538  11.731
  1008G11  C01I69119   9.709   9.546  11.728
  1008G11  C01H69120   9.790   9.605  11.825
  1008G11  C00K69121   9.926   9.580  11.830
  1008G11  C01S69122   9.984   9.488  11.747
  1008G11  C01469123  10.113   9.453  11.758
  1008G11  C00J69124   9.998   9.635  11.933
  1008G11  C00I69125   9.940   9.714  12.027
  1008G11  C00H69126   9.804   9.742  12.016
  1008G11  C00G69127   9.737   9.819  12.108
  1008G11  C00S69128  10.012   9.764  12.128
  1008G11  C00T69129   9.944   9.846  12.210
  1008G11  C00U69130  10.018   9.916  12.300
  1008G11  C00R69131  10.150   9.749  12.135
  1008G11  C00L69132  10.134   9.607  11.941
  1008G11  C02869133   9.726   9.676  11.923
  1008G11  C02369134   9.587   9.687  11.920
  1008G11  C02469135   9.523   9.763  12.018
  1008G11  C02169136   9.514   9.615  11.827
  1008G11  C02269137   9.377   9.619  11.836
  1008G11  C02H69138   9.313   9.696  11.930
  1008G11  C03069139   9.177   9.691  11.944
  1008G11  C03469140   9.104   9.626  11.851
  1008G11  C02P69141   9.308   9.537  11.750
  1008G11  C02B69142   9.366   9.447  11.664
  1008G11  C01J69143   9.772   9.455  11.641
  1008G11  C01X69144   9.724   9.138  11.474
  1008G11  C01T69145   9.901   9.418  11.661
  1008G11  H00969146  10.300   8.926  11.268
  1008G11  C01P69147  10.273   9.157  11.518
  1008G11  C01R69148  10.161   9.340  11.690
  1008G11  C00Z69149  10.514   9.346  11.804
  1008G11  O00069150  10.593   9.421  11.889
  1008G11  C00M69151  10.191   9.520  11.855
  1008G11  C00Y69152  10.536   9.514  11.973
  1008G11  C01369153  10.618   9.590  12.061
  1008G11  H00169154  10.724   9.571  12.066
  1008G11  C00Q69155  10.210   9.659  12.047
  1008G11  C00169156  10.566   9.678  12.158
  1008G11  C00069157  10.644   9.743  12.249
  1008G11  H00669158  10.746   9.717  12.271
  1008G11  C00W69159  10.226   9.815  12.233
  1008G11  C01G69160  10.586   9.827  12.340
  1008G11  H00569161  10.652   9.857  12.420
  1008G11  C01C69162  10.511  10.000  12.541
  1008G11  H00269163  10.618  10.001  12.533
  1008G11  C01B69164  10.443  10.079  12.644
  1008G11  C01D69165  10.497  10.162  12.738
  1008G11  H00369166  10.604  10.176  12.731
  1008G11  C01E69167  10.414  10.219  12.828
  1008G11  H00469168  10.446  10.289  12.904
  1008G11  O00269169  10.277  10.201  12.828
  1008G11  C01A69170  10.303  10.065  12.630
  1008G11  C00V69171  10.154   9.898  12.328
  1008G11  C01969172  10.216  10.136  12.721
  1008G11  C02E69173   9.675  10.304  12.933
  1008G11  C0FX69174   9.611  10.356  13.046
  1008G11  C0FW69175   9.473  10.349  13.061
  1008G11  C0GB69176   9.687  10.417  13.146
  1008G11  C0G369177   9.596  10.248  12.840
  1008G11  C07H69178   9.454  10.251  12.844
  1008G11  C0GC69179   9.823  10.443  13.126
  1008G11  C0G269180   9.626  10.457  13.261
  1008G11  C0G169181   9.487  10.443  13.280
  1008G11  C0FB69182   9.237  10.515  13.537
  1008G11  C0F269183   9.072  10.431  13.321
  1008G11  C0FY69184   9.412  10.388  13.179
  1008G11  C0F569185   9.051  10.333  13.107
  1008G11  C0FV69186   9.396  10.301  12.958
  1008G11  C07969187   9.043  10.245  12.883
  1008G11  C07A69188   9.025  10.115  12.674
  1008G11  C06Y69189   9.142   9.992  12.460
  1008G11  C07D69190   9.379  10.192  12.741
  1008G11  C01F69191   9.659  10.181  12.734
  1008G11  C00A69192   9.856  10.106  12.616
  1008G11  C00X69193   9.957   9.991  12.391
  1008G11  C00F69194   9.810   9.871  12.210
  1008G11  C02969195   9.552  10.011  12.423
  1008G11  C02569196   9.602   9.829  12.110
  1008G11  C06U69197   9.338   9.946  12.335
  1008G11  C02A69198   9.387   9.767  12.023
  1008G11  C05Y69199   9.110   9.747  12.048
  1008G11  C05Z69200   8.971   9.740  12.060
  1008G11  C06069201   8.898   9.668  11.966
  1008G11  C06269202   8.763   9.645  11.985
  1008G11  C06T69203   9.199   9.939  12.346
  1008G11  C06A69204   8.908   9.808  12.161
  1008G11  C06Z69205   9.004   9.990  12.467
  1008G11  C06Q69206   8.728   9.977  12.500
  1008G11  C06869207   8.772   9.791  12.175
  1008G11  C06769208   8.700   9.705  12.097
  1008G11  C06369209   8.300   9.620  12.202
  1008G11  C06C69210   8.172   9.583  12.255
  1008G11  C06D69211   8.092   9.490  12.195
  1008G11  C06E69212   7.980   9.426  12.243
  1008G11  C07Q69213   7.943   9.459  12.367
  1008G11  C07P69214   8.011   9.568  12.432
  1008G11  C07T69215   7.961   9.617  12.551
  1008G11  C07U69216   8.027   9.716  12.617
  1008G11  C07V69217   7.972   9.765  12.738
  1008G11  C08469218   7.864   9.699  12.793
  1008G11  C08C69219   7.812   9.590  12.734
  1008G11  C08B69220   7.711   9.528  12.798
  1008G11  C08A69221   7.660   9.423  12.733
  1008G11  C08969222   7.697   9.373  12.613
  1008G11  C08869223   7.628   9.270  12.551
  1008G11  C08769224   7.683   9.211  12.435
  1008G11  C08669225   7.781   9.280  12.369
  1008G11  C08X69226   7.520   9.210  12.614
  1008G11  C08T69227   7.479   9.246  12.747
  1008G11  C08D69228   7.800   9.436  12.550
  1008G11  C08U69229   7.550   9.358  12.791
  1008G11  C08V69230   7.494   9.399  12.912
  1008G11  C0CY69231   7.546   9.514  12.969
  1008G11  C0CX69232   7.486   9.552  13.084
  1008G11  C0CW69233   7.537   9.663  13.149
  1008G11  C0CV69234   7.647   9.729  13.096
  1008G11  C0D469235   7.703   9.684  12.977
  1008G11  C0CU69236   7.703   9.839  13.159
  1008G11  C0CT69237   7.659   9.880  13.283
  1008G11  C0CS69238   7.549   9.814  13.338
  1008G11  C0D669239   7.806   9.899  13.090
  1008G11  C0EC69240   7.869   9.853  12.974
  1008G11  C07X69241   7.987   9.910  12.929
  1008G11  C0DL69242   7.867   9.997  13.159
  1008G11  C0DK69243   7.981  10.053  13.111
  1008G11  C0DN69244   8.015  10.151  13.194
  1008G11  C0D869245   7.835  10.045  13.285
  1008G11  C08W69246   7.389   9.324  12.953
  1008G11  C0CQ69247   7.319   9.365  13.073
  1008G11  C09369248   7.653   9.574  12.911
  1008G11  C09269249   7.813   9.745  12.917
  1008G11  C08569250   7.858   9.545  12.612
  1008G11  C07S69251   7.843   9.393  12.429
  1008G11  C06F69252   7.919   9.315  12.181
  1008G11  C07O69253   8.124   9.629  12.376
  1008G11  C07N69254   8.193   9.725  12.441
  1008G11  C05D69255   8.126   9.464  12.065
  1008G11  C05C69256   8.066   9.357  12.003
  1008G11  C05N69257   8.146   9.312  11.899
  1008G11  C05M69258   8.506   9.423  11.829
  1008G11  C05I69259   8.695   9.554  11.896
  1008G11  C06169260   8.966   9.610  11.859
  1008G11  C02Q69261   9.171   9.553  11.755
  1008G11  C02O69262   9.295   9.356  11.590
  1008G11  C03Q69263   8.925   9.384  11.589
  1008G11  C03O69264   8.791   9.191  11.530
  1008G11  C03L69265   8.870   8.889  11.359
  1008G11  C02S69266   9.144   9.134  11.432
  1008G11  C02T69267   9.295   8.934  11.316
  1008G11  C03K69268   8.944   8.783  11.293
  1008G11  C03I69269   9.365   8.838  11.248
  1008G11  C03G69270   9.514   8.645  11.101
  1008G11  H00D69271   9.571   8.568  11.052
  1008G11  C03J69272   9.110   8.588  11.165
  1008G11  C03W69273   9.022   8.327  11.096
  1008G11  C04I69274   8.806   8.381  11.175
  1008G11  C04K69275   8.550   8.329  11.251
  1008G11  C04N69276   8.430   8.307  11.304
  1008G11  C04X69277   8.227   8.383  11.431
  1008G11  C05069278   8.047   8.457  11.588
  1008G11  C05W69279   8.144   8.722  11.551
  1008G11  C05S69280   7.806   8.729  11.902
  1008G11  C05R69281   8.007   8.946  11.714
  1008G11  C05O69282   8.099   9.200  11.825
  1008G11  C05B69283   7.961   9.279  12.060
  1008G11  C05A69284   7.806   8.954  11.989
  1008G11  C07R69285   7.825   9.233  12.244
  1008G11  C08N69286   7.632   9.093  12.381
  1008G11  C08M69287   7.518   9.043  12.445
  1008G11  C08L69288   7.481   8.912  12.410
  1008G11  C09169289   7.755   8.819  12.012
  1008G11  C09K69290   7.494   8.602  12.109
  1008G11  H00M69291   7.474   8.597  12.003
  1008G11  C08K69292   7.569   8.834  12.331
  1008G11  C09J69293   7.412   8.544  12.214
  1008G11  C09I69294   7.295   8.465  12.248
  1008G11  C09L69295   7.227   8.355  12.191
  1008G11  H00N69296   7.264   8.298  12.108
  1008G11  C09Q69297   7.114   8.314  12.256
  1008G11  H00O69298   7.068   8.224  12.220
  1008G11  O00B69299   7.055   8.371  12.373
  1008G11  C09G69300   7.119   8.483  12.425
  1008G11  C09F69301   7.046   8.544  12.532
  1008G11  O00A69302   6.946   8.471  12.591
  1008G11  C09P69303   6.899   8.507  12.715
  1008G11  H00P69304   6.843   8.430  12.768
  1008G11  C09O69305   6.910   8.640  12.766
  1008G11  C09D69306   6.995   8.731  12.697
  1008G11  C09C69307   7.018   8.873  12.726
  1008G11  C09N69308   6.988   8.957  12.842
  1008G11  C09T69309   6.954   8.910  12.965
  1008G11  C09S69310   6.864   8.795  12.967
  1008G11  C0CP69311   6.784   8.831  13.076
  1008G11  C0CN69312   6.809   8.956  13.133
  1008G11  C0CO69313   6.712   9.003  13.223
  1008G11  H01469314   6.725   9.101  13.265
  1008G11  C0CZ69315   6.624   8.911  13.274
  1008G11  H01569316   6.570   8.948  13.359
  1008G11  C0D069317   6.616   8.772  13.237
  1008G11  C0G569318   6.536   8.663  13.296
  1008G11  H01F69319   6.490   8.685  13.392
  1008G11  C0G469320   6.530   8.548  13.234
  1008G11  H01G69321   6.480   8.461  13.274
  1008G11  O00H69322   6.577   8.526  13.109
  1008G11  C0D269323   6.667   8.613  13.058
  1008G11  C09V69324   6.736   8.590  12.938
  1008G11  H00Q69325   6.701   8.502  12.884
  1008G11  C0D169326   6.690   8.736  13.121
  1008G11  C09R69327   6.839   8.673  12.888
  1008G11  C09H69328   7.245   8.518  12.370
  1008G11  C09E69329   7.066   8.680  12.580
  1008G11  C09B69330   7.082   8.957  12.644
  1008G11  C08Z69331   7.350   8.874  12.454
  1008G11  C08O69332   7.453   9.106  12.553
  1008G11  C09A69333   7.098   9.094  12.689
  1008G11  C08S69334   7.378   9.222  12.851
  1008G11  C09969335   7.043   9.095  12.822
  1008G11  C09U69336   6.940   8.997  13.078
  1008G11  C0BO69337   7.045   9.275  13.463
  1008G11  C0CL69338   7.207   9.291  13.126
  1008G11  C0D369339   7.379   9.477  13.139
  1008G11  C0D569340   7.480   9.712  13.266
  1008G11  C0BR69341   7.181   9.479  13.446
  1008G11  C0BQ69342   7.097   9.393  13.520
  1008G11  C0BL69343   6.910   9.233  13.661
  1008G11  C0AF69344   6.855   9.288  13.920
  1008G11  C0BH69345   7.074   9.568  13.846
  1008G11  C0BG69346   7.132   9.678  13.908
  1008G11  C0BD69347   7.036   9.611  14.120
  1008G11  C0AG69348   6.846   9.313  14.053
  1008G11  C0AI69349   6.738   9.246  14.258
  1008G11  C0AV69350   6.666   9.286  14.516
  1008G11  C0BB69351   6.941   9.531  14.462
  1008G11  O00C69352   6.660   9.462  14.685
  1008G11  C0BC69353   6.962   9.645  14.544
  1008G11  C0B969354   7.012   9.633  14.257
  1008G11  O00E69355   7.128   9.982  14.279
  1008G11  C0CA69356   7.208  10.069  14.219
  1008G11  O00F69357   7.223  10.185  14.268
  1008G11  C0BF69358   7.098   9.707  14.039
  1008G11  C0C569359   7.261  10.029  14.091
  1008G11  C0C469360   7.346  10.120  14.020
  1008G11  H01169361   7.372  10.216  14.062
  1008G11  C0C869362   7.219   9.759  13.840
  1008G11  C0C269363   7.391  10.076  13.896
  1008G11  C0C369364   7.492  10.143  13.821
  1008G11  C0DY69365   7.555  10.257  13.870
  1008G11  H01669366   7.537  10.323  13.954
  1008G11  C0DX69367   7.673  10.271  13.783
  1008G11  C0DW69368   7.789  10.323  13.843
  1008G11  C0BY69369   7.351   9.807  13.649
  1008G11  C0DB69370   7.555  10.093  13.713
  1008G11  C0CC69371   7.506   9.848  13.465
  1008G11  C0D769372   7.726   9.984  13.353
  1008G11  C0DZ69373   7.667  10.171  13.681
  1008G11  C0DM69374   7.936  10.149  13.310
  1008G11  C0DQ69375   7.953  10.285  13.639
  1008G11  C0DV69376   7.918  10.322  13.775
  1008G11  C0E069377   7.814  10.386  13.970
  1008G11  C0FO69378   8.033  10.639  14.048
  1008G11  C0E369379   7.733  10.487  14.031
  1008G11  H01769380   7.632  10.516  14.005
  1008G11  C0GV69381   7.966  10.745  14.106
  1008G11  C0ES69382   8.131  10.659  13.945
  1008G11  C0GQ69383   8.161  11.027  13.991
  1008G11  C0FJ69384   8.450  10.988  13.776
  1008G11  C0ED69385   8.334  10.721  13.754
  1008G11  C0ER69386   8.649  10.645  13.663
  1008G11  C0EP69387   8.607  10.512  13.485
  1008G11  C0E669388   8.264  10.509  13.631
  1008G11  C0DE69389   8.194  10.359  13.367
  1008G11  C0EA69390   8.559  10.383  13.258
  1008G11  C0DF69391   8.190  10.334  13.221
  1008G11  C08069392   8.441  10.202  12.995
  1008G11  C0DO69393   8.128  10.225  13.157
  1008G11  C0DJ69394   8.050  10.015  12.994
  1008G11  C07K69395   8.354  10.063  12.782
  1008G11  C07W69396   8.037   9.868  12.805
  1008G11  C08369397   8.150   9.771  12.566
  1008G11  C07J69398   8.408  10.006  12.662
  1008G11  C06O69399   8.518   9.891  12.426
  1008G11  C06M69400   8.316   9.769  12.396
  1018G11  C07169401   2.000   6.372  14.266
  1018G11  C07L69402   1.919   6.272  14.315
  1018G11  C07M69403   1.972   6.165  14.390
  1018G11  C07Y69404   1.890   6.062  14.436
  1018G11  C08169405   1.752   6.054  14.405
  1018G11  C08269406   1.671   5.947  14.448
  1018G11  C0DI69407   1.525   5.918  14.424
  1018G11  C0DH69408   1.415   5.996  14.391
  1018G11  C0DG69409   1.299   5.913  14.363
  1018G11  C0E969410   1.165   5.944  14.399
  1018G11  C0E869411   1.115   5.829  14.475
  1018G11  C0E769412   0.988   5.813  14.550
  1018G11  C0EB69413   0.876   5.905  14.520
  1018G11  C0EF69414   0.746   5.912  14.595
  1018G11  C0EE69415   0.733   5.892  14.735
  1018G11  C0FD69416   0.684   5.988  14.826
  1018G11  C0FE69417   0.659   6.124  14.799
  1018G11  H01B69418   0.677   6.157  14.698
  1018G11  C0FF69419   0.624   6.215  14.891
  1018G11  H01A69420   0.615   6.318  14.859
  1018G11  C0FG69421   0.595   6.182  15.013
  1018G11  H01869422   0.564   6.250  15.092
  1018G11  C0FH69423   0.611   6.044  15.052
  1018G11  C0FI69424   0.594   5.998  15.185
  1018G11  H01969425   0.561   6.064  15.264
  1018G11  O00K69426   0.612   5.874  15.227
  1018G11  C0FL69427   0.659   5.782  15.135
  1018G11  C0FK69428   0.675   5.816  14.996
  1018G11  C0FM69429   0.724   5.714  14.905
  1018G11  C0FN69430   0.742   5.583  14.956
  1018G11  C0FP69431   0.731   5.552  15.092
  1018G11  C0GO69432   0.755   5.431  15.142
  1018G11  C0GN69433   0.779   5.409  15.276
  1018G11  C0GR69434   0.757   5.522  15.359
  1018G11  C0GS69435   0.779   5.515  15.497
  1018G11  H01Q69436   0.761   5.603  15.557
  1018G11  C0GT69437   0.828   5.397  15.554
  1018G11  H01O69438   0.858   5.386  15.657
  1018G11  C0GU69439   0.854   5.284  15.468
  1018G11  H01P69440   0.895   5.200  15.521
  1018G11  O00L69441   0.699   5.633  15.309
  1018G11  C0GM69442   0.834   5.287  15.326
  1018G11  C0GL69443   0.865   5.182  15.231
  1018G11  H01R69444   0.898   5.083  15.261
  1018G11  C0GK69445   0.834   5.199  15.094
  1018G11  C0GP69446   0.877   5.142  14.969
  1018G11  C0E269447   0.817   5.219  14.858
  1018G11  C0E169448   0.913   5.214  14.753
  1018G11  C0DU69449   0.980   5.327  14.702
  1018G11  C0DT69450   0.936   5.460  14.679
  1018G11  C0E469451   0.838   5.524  14.746
  1018G11  C0E569452   0.833   5.658  14.701
  1018G11  C0DS69453   1.015   5.559  14.619
  1018G11  C0DR69454   1.150   5.523  14.595
  1018G11  C0DD69455   1.252   5.595  14.542
  1018G11  C0DC69456   1.375   5.513  14.552
  1018G11  C0DP69457   1.346   5.385  14.607
  1018G11  C0DA69458   1.441   5.278  14.633
  1018G11  C0D969459   1.594   5.271  14.641
  1018G11  C0CR69460   1.663   5.144  14.660
  1018G11  C0C069461   1.599   5.025  14.674
  1018G11  C0BZ69462   1.655   4.898  14.688
  1018G11  C0C169463   1.577   4.783  14.670
  1018G11  C0C769464   1.641   4.655  14.654
  1018G11  C0C669465   1.565   4.540  14.641
  1018G11  C0C969466   1.628   4.420  14.637
  1018G11  C0B869467   1.551   4.306  14.610
  1018G11  C0B769468   1.604   4.175  14.609
  1018G11  C0B669469   1.545   4.038  14.589
  1018G11  C0B569470   1.445   4.010  14.490
  1018G11  H00Z69471   1.383   4.081  14.437
  1018G11  C0B469472   1.467   3.868  14.455
  1018G11  H01069473   1.425   3.812  14.373
  1018G11  C0B369474   1.592   3.821  14.521
  1018G11  C0AP69475   1.723   3.745  14.507
  1018G11  C0AQ69476   1.812   3.818  14.588
  1018G11  C0AR69477   1.948   3.817  14.559
  1018G11  C0AS69478   2.013   3.924  14.614
  1018G11  C0AT69479   1.954   4.044  14.644
  1018G11  C0BA69480   1.817   4.050  14.646
  1018G11  C0AU69481   2.025   4.159  14.660
  1018G11  C0BE69482   1.962   4.277  14.671
  1018G11  C0BI69483   2.040   4.397  14.669
  1018G11  C0BJ69484   2.184   4.385  14.659
  1018G11  C0BK69485   2.257   4.503  14.663
  1018G11  C0BW69486   2.199   4.629  14.675
  1018G11  C0BV69487   2.056   4.632  14.681
  1018G11  C0BU69488   1.996   4.757  14.694
  1018G11  C0BX69489   1.859   4.761  14.680
  1018G11  C0BT69490   2.074   4.874  14.700
  1018G11  C0CD69491   2.009   4.995  14.695
  1018G11  C0CB69492   1.869   5.005  14.690
  1018G11  C0CE69493   2.090   5.108  14.688
  1018G11  C0CK69494   2.231   5.099  14.692
  1018G11  C0BS69495   2.291   4.979  14.701
  1018G11  C0CJ69496   2.437   4.971  14.697
  1018G11  C0BP69497   2.498   4.848  14.696
  1018G11  C0CI69498   2.638   4.832  14.701
  1018G11  C0CH69499   2.681   4.707  14.657
  1018G11  H01269500   2.784   4.700  14.627
  1018G11  C0BN69501   2.608   4.590  14.649
  1018G11  C0CG69502   2.669   4.462  14.643
  1018G11  C0CF69503   2.811   4.449  14.642
  1018G11  H01369504   2.873   4.537  14.653
  1018G11  O00G69505   2.872   4.325  14.638
  1018G11  C0AA69506   2.788   4.221  14.613
  1018G11  C0A969507   2.857   4.102  14.603
  1018G11  H00U69508   2.964   4.093  14.607
  1018G11  C0A869509   2.789   3.980  14.577
  1018G11  H00V69510   2.846   3.888  14.571
  1018G11  C0A769511   2.650   3.985  14.555
  1018G11  C0A669512   2.575   4.113  14.572
  1018G11  C0A569513   2.438   4.130  14.572
  1018G11  C0A469514   2.350   4.018  14.555
  1018G11  C0A369515   2.351   3.884  14.508
  1018G11  C0A269516   2.464   3.808  14.486
  1018G11  C0A169517   2.458   3.675  14.451
  1018G11  C0A069518   2.351   3.573  14.414
  1018G11  C09Z69519   2.400   3.441  14.393
  1018G11  C09Y69520   2.310   3.342  14.352
  1018G11  H00Y69521   2.342   3.239  14.343
  1018G11  C09X69522   2.176   3.373  14.327
  1018G11  C09W69523   2.093   3.272  14.289
  1018G11  H00R69524   2.142   3.182  14.255
  1018G11  C0AX69525   1.957   3.288  14.273
  1018G11  H00S69526   1.887   3.214  14.238
  1018G11  C0AW69527   1.900   3.415  14.307
  1018G11  H00T69528   1.794   3.436  14.301
  1018G11  C0AN69529   1.975   3.512  14.366
  1018G11  C0AO69530   1.917   3.627  14.420
  1018G11  C0AM69531   2.119   3.496  14.364
  1018G11  C0B269532   2.537   3.396  14.402
  1018G11  O00D69533   2.574   3.281  14.385
  1018G11  C0B169534   2.634   3.495  14.433
  1018G11  H00W69535   2.732   3.454  14.455
  1018G11  C0AL69536   2.209   3.596  14.417
  1018G11  C0AK69537   2.149   3.711  14.464
  1018G11  C0B069538   2.589   3.630  14.462
  1018G11  C0AZ69539   2.670   3.739  14.495
  1018G11  H00X69540   2.778   3.729  14.488
  1018G11  C0AJ69541   2.218   3.833  14.503
  1018G11  C0AH69542   2.222   4.039  14.601
  1018G11  C0AE69543   2.377   4.255  14.605
  1018G11  C0AD69544   2.455   4.369  14.621
  1018G11  C0AY69545   2.596   3.858  14.514
  1018G11  C0AB69546   2.650   4.226  14.603
  1018G11  C0AC69547   2.593   4.353  14.620
  1018G11  C0BM69548   2.471   4.608  14.657
  1018G11  C0CM69549   2.719   4.942  14.740
  1018G11  C09M69550   2.661   5.075  14.735
  1018G11  C09869551   2.746   5.181  14.780
  1018G11  C08R69552   2.738   5.326  14.764
  1018G11  C08Q69553   2.857   5.396  14.799
  1018G11  C08P69554   2.927   5.516  14.750
  1018G11  C08Y69555   3.065   5.526  14.777
  1018G11  C09769556   3.132   5.409  14.802
  1018G11  C09669557   3.253   5.399  14.736
  1018G11  C09069558   3.284   5.533  14.699
  1018G11  C09569559   3.390   5.574  14.625
  1018G11  C09469560   3.424   5.710  14.600
  1018G11  C08J69561   3.336   5.822  14.588
  1018G11  C08I69562   3.372   5.893  14.475
  1018G11  C08H69563   3.261   5.974  14.431
  1018G11  C08G69564   3.139   5.922  14.499
  1018G11  C08F69565   3.001   5.957  14.519
  1018G11  C08E69566   2.948   6.080  14.466
  1018G11  C05969567   3.023   6.193  14.418
  1018G11  C05869568   2.954   6.312  14.377
  1018G11  C05769569   3.017   6.420  14.319
  1018G11  C05669570   3.159   6.414  14.313
  1018G11  C05569571   3.227   6.317  14.371
  1018G11  C05469572   3.352   6.317  14.307
  1018G11  C05369573   3.351   6.419  14.203
  1018G11  C05269574   3.440   6.457  14.096
  1018G11  C05169575   3.557   6.369  14.084
  1018G11  C05U69576   3.588   6.239  14.150
  1018G11  C05T69577   3.511   6.148  14.235
  1018G11  C06K69578   3.615   6.069  14.300
  1018G11  H00J69579   3.588   6.022  14.394
  1018G11  C06L69580   3.735   6.080  14.232
  1018G11  H00I69581   3.820   6.017  14.252
  1018G11  C05V69582   3.720   6.183  14.144
  1018G11  C06J69583   3.818   6.229  14.056
  1018G11  H00K69584   3.919   6.191  14.056
  1018G11  C05X69585   3.787   6.338  13.974
  1018G11  C06I69586   3.879   6.386  13.874
  1018G11  H00L69587   3.973   6.336  13.858
  1018G11  C04Z69588   3.848   6.490  13.787
  1018G11  C06H69589   3.935   6.511  13.672
  1018G11  H00H69590   4.027   6.454  13.671
  1018G11  C04Y69591   3.886   6.603  13.573
  1018G11  C06G69592   3.962   6.621  13.452
  1018G11  O00969593   4.062   6.557  13.419
  1018G11  O00869594   3.930   6.713  13.368
  1018G11  C04P69595   3.808   6.781  13.378
  1018G11  C04J69596   3.749   6.852  13.274
  1018G11  C04Q69597   3.799   6.859  13.145
  1018G11  H00E69598   3.895   6.814  13.120
  1018G11  C04M69599   3.727   6.910  13.038
  1018G11  C04R69600   3.761   6.904  12.898
  1018G11  H00F69601   3.859   6.863  12.877
  1018G11  C04S69602   3.690   6.959  12.797
  1018G11  H00G69603   3.729   6.951  12.696
  1018G11  O00769604   3.582   7.034  12.826
  1018G11  C03V69605   3.534   7.031  12.961
  1018G11  C03U69606   3.413   7.085  12.993
  1018G11  O00669607   3.356   7.137  12.886
  1018G11  C03F69608   3.230   7.184  12.898
  1018G11  C03E69609   3.164   7.194  13.025
  1018G11  C03D69610   3.226   7.143  13.141
  1018G11  C03C69611   3.166   7.147  13.265
  1018G11  C03B69612   3.029   7.187  13.259
  1018G11  C03A69613   2.959   7.163  13.378
  1018G11  C03969614   3.007   7.097  13.492
  1018G11  C03869615   2.885   7.088  13.583
  1018G11  C03769616   2.785   7.155  13.506
  1018G11  C03669617   2.662   7.172  13.556
  1018G11  C02R69618   2.541   7.217  13.497
  1018G11  C03569619   2.444   7.183  13.597
  1018G11  C03R69620   2.496   7.120  13.705
  1018G11  C03S69621   2.425   7.023  13.772
  1018G11  C04969622   2.504   6.941  13.856
  1018G11  C04869623   2.644   6.948  13.845
  1018G11  C03P69624   2.713   7.030  13.749
  1018G11  C04769625   2.701   6.857  13.937
  1018G11  C04669626   2.837   6.846  13.965
  1018G11  C04569627   2.955   6.894  13.900
  1018G11  C03T69628   2.966   6.973  13.780
  1018G11  C04469629   3.103   6.981  13.745
  1018G11  C04369630   3.177   6.924  13.855
  1018G11  C04269631   3.292   6.869  13.811
  1018G11  C04169632   3.303   6.922  13.670
  1018G11  C04069633   3.426   6.924  13.595
  1018G11  C03Z69634   3.445   6.969  13.460
  1018G11  C04H69635   3.569   6.914  13.421
  1018G11  C04G69636   3.627   6.843  13.521
  1018G11  C03N69637   3.368   7.046  13.353
  1018G11  C03Y69638   3.429   7.033  13.227
  1018G11  C03X69639   3.550   6.971  13.195
  1018G11  C04F69640   3.537   6.835  13.623
  1018G11  C04E69641   3.575   6.736  13.720
  1018G11  C04O69642   3.695   6.659  13.706
  1018G11  C04D69643   3.495   6.705  13.831
  1018G11  C04V69644   3.524   6.593  13.910
  1018G11  C04W69645   3.642   6.524  13.910
  1018G11  C04C69646   3.367   6.755  13.871
  1018G11  C04L69647   3.332   6.671  13.983
  1018G11  C04U69648   3.217   6.690  14.063
  1018G11  C05Q69649   3.177   6.594  14.157
  1018G11  C05P69650   3.037   6.610  14.180
  1018G11  C04T69651   2.984   6.702  14.089
  1018G11  C04B69652   3.094   6.752  14.020
  1018G11  C03M69653   3.186   7.000  13.628
  1018G11  C04A69654   3.081   6.854  13.935
  1018G11  C05H69655   2.855   6.748  14.061
  1018G11  C05G69656   2.725   6.710  14.108
  1018G11  C05F69657   2.702   6.623  14.217
  1018G11  C05E69658   2.582   6.547  14.230
  1018G11  C05L69659   2.443   6.562  14.192
  1018G11  C05K69660   2.396   6.663  14.099
  1018G11  C05J69661   2.480   6.755  14.023
  1018G11  C06669662   2.258   6.660  14.074
  1018G11  C06569663   2.175   6.566  14.144
  1018G11  C06469664   2.222   6.474  14.241
  1018G11  C06N69665   2.036   6.564  14.118
  1018G11  C06969666   1.979   6.656  14.033
  1018G11  C06P69667   1.838   6.657  14.009
  1018G11  C06R69668   1.783   6.747  13.917
  1018G11  C06B69669   1.862   6.836  13.846
  1018G11  C06S69670   1.804   6.916  13.747
  1018G11  C02G69671   1.886   6.998  13.671
  1018G11  C02F69672   1.830   7.059  13.560
  1018G11  C02769673   1.700   7.041  13.526
  1018G11  C02669674   1.653   7.096  13.406
  1018G11  C00E69675   1.520   7.075  13.370
  1018G11  C00D69676   1.482   7.108  13.244
  1018G11  C00C69677   1.355   7.071  13.207
  1018G11  C00B69678   1.266   7.000  13.277
  1018G11  C01569679   1.303   6.963  13.408
  1018G11  C07F69680   1.221   6.889  13.487
  1018G11  C07E69681   1.270   6.838  13.599
  1018G11  C06W69682   1.400   6.858  13.640
  1018G11  C06V69683   1.481   6.943  13.567
  1018G11  C06X69684   1.454   6.796  13.751
  1018G11  C07B69685   1.375   6.711  13.828
  1018G11  C07C69686   1.240   6.691  13.789
  1018G11  C0FU69687   1.159   6.609  13.863
  1018G11  C0F769688   1.027   6.589  13.829
  1018G11  C0F669689   0.947   6.502  13.899
  1018G11  C0F869690   0.810   6.491  13.870
  1018G11  C0F969691   0.735   6.414  13.951
  1018G11  C0FA69692   0.595   6.434  13.941
  1018G11  C0FZ69693   0.541   6.492  13.833
  1018G11  C0G069694   0.402   6.515  13.819
  1018G11  C0GD69695   0.322   6.488  13.937
  1018G11  C0FC69696   0.378   6.419  14.043
  1018G11  C0GH69697   0.293   6.374  14.150
  1018G11  C0EY69698   0.342   6.278  14.238
  1018G11  C0EX69699   0.265   6.222  14.344
  1018G11  C0EW69700   0.315   6.120  14.428
  1018G11  C0FR69701   0.228   6.058  14.525
  1018G11  H01D69702   0.256   5.969  14.579
  1018G11  C0FS69703   0.097   6.106  14.545
  1018G11  H01C69704   0.034   6.060  14.619
  1018G11  C0GJ69705   0.060   6.221  14.472
  1018G11  H01N69706  -0.038   6.260  14.495
  1018G11  C0EV69707   0.448   6.087  14.421
  1018G11  C0FT69708   0.505   5.994  14.525
  1018G11  H01E69709   0.442   5.939  14.594
  1018G11  C0EU69710   0.530   6.141  14.317
  1018G11  C0ET69711   0.664   6.114  14.312
  1018G11  C0EI69712   0.755   6.185  14.236
  1018G11  C0F169713   0.697   6.274  14.141
  1018G11  C0F069714   0.560   6.305  14.139
  1018G11  C0EH69715   0.895   6.167  14.254
  1018G11  C0EG69716   0.956   6.072  14.339
  1018G11  C0EJ69717   0.977   6.254  14.174
  1018G11  C0F369718   0.921   6.343  14.078
  1018G11  C0EK69719   1.116   6.259  14.197
  1018G11  C0EL69720   1.179   6.164  14.284
  1018G11  C0EM69721   1.321   6.195  14.301
  1018G11  C0EN69722   1.378   6.298  14.240
  1018G11  C07I69723   1.516   6.298  14.254
  1018G11  C07469724   1.598   6.397  14.209
  1018G11  C07369725   1.732   6.380  14.226
  1018G11  C07269726   1.814   6.468  14.160
  1018G11  C07569727   1.536   6.481  14.122
  1018G11  C07669728   1.401   6.464  14.089
  1018G11  C07869729   1.344   6.547  13.999
  1018G11  C07G69730   1.620   6.568  14.054
  1018G11  C07069731   1.564   6.646  13.955
  1018G11  C07Z69732   1.557   6.190  14.328
  1018G11  C07769733   1.318   6.373  14.145
  1018G11  C0EO69734   1.186   6.357  14.132
  1018G11  C0F469735   1.131   6.438  14.039
  1018G11  C0EQ69736   0.721   6.035  14.412
  1018G11  C0FQ69737   0.136   6.272  14.366
  1018G11  C0GI69738   0.091   6.367  14.273
  1018G11  H01L69739  -0.010   6.403  14.283
  1018G11  C0EZ69740   0.473   6.237  14.229
  1018G11  C0GG69741   0.162   6.415  14.164
  1018G11  C0GF69742   0.115   6.499  14.060
  1018G11  H01M69743   0.011   6.528  14.057
  1018G11  C0GE69744   0.183   6.516  13.942
  1018G11  H01K69745   0.136   6.557  13.854
  1018G11  O00J69746   0.347   6.560  13.701
  1018G11  C0GA69747   0.436   6.608  13.609
  1018G11  C0G969748   0.384   6.661  13.489
  1018G11  H01H69749   0.278   6.651  13.469
  1018G11  C0G869750   0.469   6.720  13.396
  1018G11  C0G769751   0.422   6.774  13.272
  1018G11  H01I69752   0.317   6.758  13.254
  1018G11  O00I69753   0.497   6.838  13.178
  1018G11  C0G669754   0.625   6.855  13.213
  1018G11  H01J69755   0.683   6.920  13.150
  1018G11  C02D69756   0.690   6.797  13.331
  1018G11  C02C69757   0.827   6.809  13.360
  1018G11  C01769758   0.923   6.869  13.266
  1018G11  C01669759   1.056   6.898  13.309
  1018G11  O00169760   0.892   6.875  13.135
  1018G11  C01869761   0.974   6.941  13.047
  1018G11  C00969762   1.104   6.987  13.086
  1018G11  C00869763   1.204   7.049  13.010
  1018G11  C00769764   1.215   7.089  12.874
  1018G11  C00669765   1.116   7.077  12.781
  1018G11  C00569766   1.135   7.128  12.653
  1018G11  C00469767   1.259   7.166  12.583
  1018G11  C00369768   1.394   7.187  12.626
  1018G11  C00269769   1.496   7.217  12.528
  1018G11  C00P69770   1.631   7.243  12.563
  1018G11  C00O69771   1.732   7.261  12.474
  1018G11  C00N69772   1.866   7.279  12.513
  1018G11  C01069773   1.968   7.314  12.421
  1018G11  C01169774   2.099   7.350  12.457
  1018G11  C01Q69775   2.199   7.371  12.359
  1018G11  C01U69776   2.166   7.368  12.223
  1018G11  C01269777   2.028   7.363  12.188
  1018G11  H00069778   1.981   7.369  12.091
  1018G11  C01V69779   2.269   7.399  12.131
  1018G11  H00769780   2.241   7.425  12.030
  1018G11  O00569781   2.398   7.408  12.164
  1018G11  C01W69782   2.425   7.416  12.297
  1018G11  C03169783   2.562   7.419  12.325
  1018G11  C03269784   2.600   7.434  12.464
  1018G11  H00A69785   2.703   7.436  12.499
  1018G11  C03369786   2.497   7.440  12.559
  1018G11  H00B69787   2.532   7.459  12.659
  1018G11  C01O69788   2.367   7.400  12.530
  1018G11  C01N69789   2.268   7.368  12.630
  1018G11  C01M69790   2.299   7.362  12.774
  1018G11  C01L69791   2.409   7.347  12.872
  1018G11  C01K69792   2.351   7.364  13.004
  1018G11  C01Y69793   2.408   7.324  13.126
  1018G11  C02I69794   2.544   7.293  13.132
  1018G11  C02N69795   2.603   7.262  13.254
  1018G11  C02M69796   2.740   7.240  13.257
  1018G11  C02L69797   2.818   7.258  13.143
  1018G11  C02K69798   2.756   7.270  13.017
  1018G11  C02U69799   2.830   7.259  12.898
  1018G11  C02V69800   2.965   7.257  12.905
  1018G11  C03H69801   3.040   7.277  12.791
  1018G11  H00C69802   2.994   7.315  12.701
  1018G11  C02W69803   2.769   7.224  12.783
  1018G11  C02X69804   2.632   7.235  12.780
  1018G11  C02Y69805   2.601   7.176  12.655
  1018G11  H00869806   2.504   7.174  12.608
  1018G11  C02Z69807   2.726   7.142  12.581
  1018G11  O00469808   2.748   7.108  12.464
  1018G11  O00369809   2.822   7.174  12.671
  1018G11  C02J69810   2.615   7.287  13.006
  1018G11  C01Z69811   2.314   7.306  13.231
  1018G11  C02069812   2.177   7.307  13.210
  1018G11  C01I69813   2.126   7.332  13.085
  1018G11  C01H69814   1.996   7.310  13.047
  1018G11  C00K69815   1.963   7.305  12.909
  1018G11  C01S69816   2.058   7.330  12.813
  1018G11  C01469817   2.031   7.322  12.680
  1018G11  C00J69818   1.832   7.276  12.872
  1018G11  C00I69819   1.743   7.251  12.969
  1018G11  C00H69820   1.779   7.242  13.101
  1018G11  C00G69821   1.693   7.196  13.192
  1018G11  C00S69822   1.616   7.231  12.927
  1018G11  C00T69823   1.528   7.193  13.023
  1018G11  C00U69824   1.403   7.154  12.985
  1018G11  C00R69825   1.573   7.229  12.796
  1018G11  C00L69826   1.801   7.271  12.741
  1018G11  C02869827   1.910   7.267  13.141
  1018G11  C02369828   1.953   7.240  13.271
  1018G11  C02469829   1.866   7.184  13.361
  1018G11  C02169830   2.088   7.251  13.302
  1018G11  C02269831   2.141   7.211  13.421
  1018G11  C02H69832   2.054   7.154  13.511
  1018G11  C03069833   2.103   7.089  13.623
  1018G11  C03469834   2.234   7.099  13.651
  1018G11  C02P69835   2.274   7.223  13.448
  1018G11  C02B69836   2.363   7.258  13.349
  1018G11  C01J69837   2.216   7.369  12.990
  1018G11  C01X69838   2.541   7.291  12.877
  1018G11  C01T69839   2.187   7.362  12.855
  1018G11  H00969840   2.634   7.414  12.245
  1018G11  C01P69841   2.331   7.392  12.398
  1018G11  C01R69842   2.134   7.348  12.590
  1018G11  C00Z69843   1.929   7.331  12.286
  1018G11  O00069844   1.801   7.305  12.241
  1018G11  C00M69845   1.903   7.283  12.644
  1018G11  C00Y69846   1.705   7.268  12.336
  1018G11  C01369847   1.565   7.243  12.296
  1018G11  H00169848   1.550   7.250  12.190
  1018G11  C00Q69849   1.671   7.249  12.699
  1018G11  C00169850   1.465   7.206  12.390
  1018G11  C00069851   1.332   7.168  12.355
  1018G11  H00669852   1.303   7.150  12.253
  1018G11  C00W69853   1.434   7.196  12.758
  1018G11  C01G69854   1.238   7.144  12.450
  1018G11  H00569855   1.144   7.119  12.402
  1018G11  C01C69856   1.003   7.137  12.601
  1018G11  H00269857   0.971   7.182  12.508
  1018G11  C01B69858   0.910   7.080  12.695
  1018G11  C01D69859   0.767   7.068  12.694
  1018G11  H00369860   0.709   7.107  12.612
  1018G11  C01E69861   0.713   7.002  12.799
  1018G11  H00469862   0.606   6.992  12.802
  1018G11  O00269863   0.781   6.945  12.911
  1018G11  C01A69864   0.980   7.033  12.810
  1018G11  C00V69865   1.348   7.150  12.861
  1018G11  C01969866   0.915   6.971  12.919
  1018G11  C02E69867   0.875   6.759  13.480
  1018G11  C0FX69868   0.793   6.689  13.568
  1018G11  C0FW69869   0.843   6.632  13.682
  1018G11  C0GB69870   0.656   6.669  13.537
  1018G11  C0G369871   1.010   6.774  13.515
  1018G11  C07H69872   1.062   6.726  13.633
  1018G11  C0GC69873   0.606   6.729  13.419
  1018G11  C0G269874   0.574   6.606  13.628
  1018G11  C0G169875   0.627   6.551  13.742
  1018G11  C0FB69876   0.510   6.381  14.038
  1018G11  C0F269877   0.785   6.347  14.062
  1018G11  C0FY69878   0.762   6.561  13.768
  1018G11  C0F569879   0.997   6.432  14.007
  1018G11  C0FV69880   0.978   6.654  13.716
  1018G11  C07969881   1.211   6.534  13.970
  1018G11  C07A69882   1.424   6.643  13.933
  1018G11  C06Y69883   1.589   6.819  13.788
  1018G11  C07D69884   1.192   6.753  13.673
  1018G11  C01F69885   1.096   6.858  13.437
  1018G11  C00A69886   1.142   6.962  13.222
  1018G11  C00X69887   1.314   7.100  13.077
  1018G11  C00F69888   1.568   7.164  13.155
  1018G11  C02969889   1.434   6.995  13.453
  1018G11  C02569890   1.738   7.161  13.323
  1018G11  C06U69891   1.614   6.965  13.606
  1018G11  C02A69892   1.917   7.132  13.477
  1018G11  C05Y69893   2.020   7.000  13.697
  1018G11  C05Z69894   2.079   6.927  13.796
  1018G11  C06069895   2.217   6.933  13.828
  1018G11  C06269896   2.277   6.842  13.918
  1018G11  C06T69897   1.668   6.901  13.715
  1018G11  C06A69898   2.000   6.842  13.872
  1018G11  C06Z69899   1.645   6.737  13.885
  1018G11  C06Q69900   1.758   6.566  14.077
  1018G11  C06869901   2.060   6.749  13.961
  1018G11  C06769902   2.199   6.750  13.985
  1018G11  C06369903   2.359   6.462  14.256
  1018G11  C06C69904   2.407   6.348  14.329
  1018G11  C06D69905   2.543   6.327  14.344
  1018G11  C06E69906   2.602   6.216  14.403
  1018G11  C07Q69907   2.519   6.121  14.454
  1018G11  C07P69908   2.381   6.140  14.451
  1018G11  C07T69909   2.305   6.036  14.495
  1018G11  C07U69910   2.163   6.048  14.482
  1018G11  C07V69911   2.088   5.940  14.520
  1018G11  C08469912   2.142   5.818  14.557
  1018G11  C08C69913   2.275   5.815  14.575
  1018G11  C08B69914   2.329   5.697  14.612
  1018G11  C08A69915   2.464   5.691  14.622
  1018G11  C08969916   2.552   5.790  14.591
  1018G11  C08869917   2.691   5.769  14.605
  1018G11  C08769918   2.777   5.878  14.565
  1018G11  C08669919   2.722   5.991  14.508
  1018G11  C08X69920   2.747   5.645  14.643
  1018G11  C08T69921   2.658   5.534  14.658
  1018G11  C08D69922   2.500   5.911  14.548
  1018G11  C08U69923   2.522   5.560  14.640
  1018G11  C08V69924   2.444   5.451  14.660
  1018G11  C0CY69925   2.306   5.456  14.657
  1018G11  C0CX69926   2.241   5.341  14.673
  1018G11  C0CW69927   2.106   5.349  14.674
  1018G11  C0CV69928   2.040   5.472  14.649
  1018G11  C0D469929   2.117   5.586  14.626
  1018G11  C0CU69930   1.905   5.477  14.631
  1018G11  C0CT69931   1.825   5.368  14.653
  1018G11  C0CS69932   1.886   5.242  14.668
  1018G11  C0D669933   1.858   5.606  14.599
  1018G11  C0EC69934   1.929   5.721  14.577
  1018G11  C07X69935   1.871   5.838  14.526
  1018G11  C0DL69936   1.724   5.607  14.569
  1018G11  C0DK69937   1.664   5.722  14.528
  1018G11  C0DN69938   1.534   5.700  14.510
  1018G11  C0D869939   1.630   5.502  14.579
  1018G11  C08W69940   2.519   5.336  14.678
  1018G11  C0CQ69941   2.449   5.211  14.689
  1018G11  C09369942   2.247   5.579  14.642
  1018G11  C09269943   2.063   5.711  14.589
  1018G11  C08569944   2.360   5.924  14.545
  1018G11  C07S69945   2.581   6.004  14.499
  1018G11  C06F69946   2.738   6.203  14.405
  1018G11  C07O69947   2.327   6.254  14.383
  1018G11  C07N69948   2.190   6.264  14.369
  1018G11  C05D69949   2.620   6.430  14.300
  1018G11  C05C69950   2.753   6.425  14.321
  1018G11  C05N69951   2.808   6.543  14.275
  1018G11  C05M69952   2.627   6.774  14.028
  1018G11  C05I69953   2.422   6.847  13.932
  1018G11  C06169954   2.291   7.024  13.756
  1018G11  C02Q69955   2.314   7.166  13.565
  1018G11  C02O69956   2.508   7.248  13.363
  1018G11  C03Q69957   2.627   7.109  13.677
  1018G11  C03O69958   2.852   7.025  13.710
  1018G11  C03L69959   3.148   7.066  13.500
  1018G11  C02S69960   2.814   7.190  13.374
  1018G11  C02T69961   2.955   7.229  13.149
  1018G11  C03K69962   3.231   7.093  13.381
  1018G11  C03I69963   3.030   7.227  13.026
  1018G11  C03G69964   3.172   7.232  12.778
  1018G11  H00D69965   3.223   7.228  12.683
  1018G11  C03J69966   3.355   7.088  13.125
  1018G11  C03W69967   3.604   6.969  13.066
  1018G11  C04I69968   3.629   6.915  13.291
  1018G11  C04K69969   3.737   6.770  13.496
  1018G11  C04N69970   3.771   6.677  13.592
  1018G11  C04X69971   3.733   6.560  13.805
  1018G11  C05069972   3.661   6.411  13.991
  1018G11  C05W69973   3.425   6.566  14.004
  1018G11  C05S69974   3.384   6.181  14.292
  1018G11  C05R69975   3.238   6.492  14.225
  1018G11  C05O69976   2.952   6.532  14.258
  1018G11  C05B69977   2.817   6.307  14.372
  1018G11  C05A69978   3.167   6.198  14.397
  1018G11  C07R69979   2.801   6.091  14.462
  1018G11  C08N69980   2.916   5.858  14.576
  1018G11  C08M69981   2.971   5.737  14.632
  1018G11  C08L69982   3.109   5.721  14.640
  1018G11  C09169983   3.276   6.107  14.372
  1018G11  C09K69984   3.469   5.814  14.399
  1018G11  H00M69985   3.486   5.817  14.293
  1018G11  C08K69986   3.192   5.812  14.576
  1018G11  C09J69987   3.517   5.715  14.488
  1018G11  C09I69988   3.577   5.575  14.488
  1018G11  C09L69989   3.697   5.523  14.429
  1018G11  H00N69990   3.769   5.582  14.375
  1018G11  C09Q69991   3.721   5.396  14.453
  1018G11  H00O69992   3.806   5.359  14.397
  1018G11  O00B69993   3.646   5.307  14.524
  1018G11  C09G69994   3.526   5.351  14.579
  1018G11  C09F69995   3.446   5.254  14.639
  1018G11  O00A69996   3.506   5.132  14.633
  1018G11  C09P69997   3.447   5.030  14.701
  1018G11  H00P69998   3.515   4.979  14.768
  1018G11  C09O69999   3.304   5.031  14.721
  1018G11  C09D70000   3.243   5.156  14.737
  1018G11  C09C70001   3.109   5.175  14.782
  1018G11  C09N70002   2.990   5.100  14.788
  1018G11  C09T70003   2.975   4.970  14.736
  1018G11  C09S70004   3.093   4.886  14.733
  1018G11  C0CP70005   3.039   4.773  14.795
  1018G11  C0CN70006   2.903   4.779  14.830
  1018G11  C0CO70007   2.845   4.678  14.904
  1018G11  H01470008   2.752   4.685  14.959
  1018G11  C0CZ70009   2.927   4.566  14.925
  1018G11  H01570010   2.884   4.492  14.991
  1018G11  C0D070011   3.054   4.549  14.865
  1018G11  C0G570012   3.134   4.429  14.862
  1018G11  H01F70013   3.088   4.345  14.913
  1018G11  C0G470014   3.247   4.420  14.793
  1018G11  H01G70015   3.295   4.323  14.797
  1018G11  O00H70016   3.314   4.531  14.732
  1018G11  C0D270017   3.251   4.652  14.750
  1018G11  C09V70018   3.308   4.776  14.707
  1018G11  H00Q70019   3.412   4.771  14.679
  1018G11  C0D170020   3.117   4.660  14.801
  1018G11  C09R70021   3.235   4.904  14.722
  1018G11  C09H70022   3.494   5.490  14.566
  1018G11  C09E70023   3.320   5.275  14.705
  1018G11  C09B70024   3.065   5.297  14.831
  1018G11  C08Z70025   3.155   5.597  14.699
  1018G11  C08O70026   2.884   5.630  14.674
  1018G11  C09A70027   2.929   5.302  14.873
  1018G11  C08S70028   2.652   5.389  14.684
  1018G11  C09970029   2.882   5.174  14.841
  1018G11  C09U70030   2.854   4.902  14.772
  1018G11  C0BO70031   2.416   4.736  14.670
  1018G11  C0CL70032   2.517   5.087  14.706
  1018G11  C0D370033   2.308   5.217  14.685
  1018G11  C0D570034   2.028   5.235  14.682
  1018G11  C0BR70035   2.211   4.865  14.702
  1018G11  C0BQ70036   2.274   4.741  14.684
  1018G11  C0BL70037   2.395   4.491  14.644
  1018G11  C0AF70038   2.243   4.265  14.639
  1018G11  C0BH70039   1.976   4.517  14.674
  1018G11  C0BG70040   1.838   4.524  14.661
  1018G11  C0BD70041   1.825   4.284  14.655
  1018G11  C0AG70042   2.163   4.154  14.645
  1018G11  C0AI70043   2.146   3.932  14.565
  1018G11  C0AV70044   2.006   3.718  14.478
  1018G11  C0BB70045   1.747   3.929  14.637
  1018G11  O00C70046   1.776   3.652  14.425
  1018G11  C0BC70047   1.610   3.916  14.627
  1018G11  C0B970048   1.748   4.166  14.640
  1018G11  O00E70049   1.410   4.315  14.610
  1018G11  C0CA70050   1.345   4.430  14.634
  1018G11  O00F70051   1.224   4.426  14.660
  1018G11  C0BF70052   1.767   4.407  14.649
  1018G11  C0C570053   1.428   4.543  14.643
  1018G11  C0C470054   1.361   4.666  14.662
  1018G11  H01170055   1.254   4.673  14.646
  1018G11  C0C870056   1.778   4.644  14.664
  1018G11  C0C270057   1.438   4.785  14.669
  1018G11  C0C370058   1.385   4.917  14.662
  1018G11  C0DY70059   1.243   4.953  14.661
  1018G11  H01670060   1.157   4.890  14.679
  1018G11  C0DX70061   1.245   5.099  14.672
  1018G11  C0DW70062   1.140   5.170  14.731
  1018G11  C0BY70063   1.792   4.888  14.687
  1018G11  C0DB70064   1.462   5.032  14.667
  1018G11  C0CC70065   1.808   5.130  14.675
  1018G11  C0D770066   1.681   5.381  14.631
  1018G11  C0DZ70067   1.380   5.150  14.652
  1018G11  C0DM70068   1.506   5.563  14.534
  1018G11  C0DQ70069   1.203   5.395  14.635
  1018G11  C0DV70070   1.112   5.299  14.688
  1018G11  C0E070071   1.018   5.124  14.791
  1018G11  C0FO70072   0.773   5.343  14.920
  1018G11  C0E370073   1.006   5.091  14.931
  1018G11  H01770074   1.088   5.064  14.996
  1018G11  C0GV70075   0.770   5.322  15.057
  1018G11  C0ES70076   0.781   5.478  14.869
  1018G11  C0GQ70077   0.698   5.655  15.179
  1018G11  C0FJ70078   0.657   5.951  14.957
  1018G11  C0ED70079   0.760   5.759  14.775
  1018G11  C0ER70080   0.648   5.983  14.519
  1018G11  C0EP70081   0.860   6.007  14.418
  1018G11  C0E670082   0.949   5.689  14.620
  1018G11  C0DE70083   1.225   5.726  14.478
  1018G11  C0EA70084   1.098   6.061  14.343
  1018G11  C0DF70085   1.330   5.787  14.412
  1018G11  C08070086   1.430   6.128  14.361
  1018G11  C0DO70087   1.464   5.793  14.456
  1018G11  C0DJ70088   1.737   5.840  14.509
  1018G11  C07K70089   1.702   6.168  14.344
  1018G11  C07W70090   1.950   5.947  14.492
  1018G11  C08370091   2.111   6.158  14.415
  1018G11  C07J70092   1.782   6.276  14.296
  1018G11  C06O70093   1.947   6.471  14.183
  1018G11  C06M70094   2.136   6.374  14.297
  1028G11  C07170095   1.521   9.374  14.308
  1028G11  C07L70096   1.624   9.359  14.401
  1028G11  C07M70097   1.608   9.291  14.522
  1028G11  C07Y70098   1.711   9.283  14.615
  1028G11  C08170099   1.839   9.339  14.590
  1028G11  C08270100   1.936   9.335  14.689
  1028G11  C0DI70101   2.078   9.390  14.693
  1028G11  C0DH70102   2.150   9.470  14.606
  1028G11  C0DG70103   2.292   9.470  14.639
  1028G11  C0E970104   2.391   9.578  14.623
  1028G11  C0E870105   2.459   9.582  14.758
  1028G11  C0E770106   2.586   9.637  14.801
  1028G11  C0EB70107   2.678   9.686  14.702
  1028G11  C0EF70108   2.819   9.691  14.717
  1028G11  C0EE70109   2.909   9.641  14.814
  1028G11  C0FD70110   3.029   9.591  14.762
  1028G11  C0FE70111   3.050   9.542  14.630
  1028G11  H01B70112   2.960   9.524  14.573
  1028G11  C0FF70113   3.175   9.502  14.586
  1028G11  H01A70114   3.197   9.459  14.489
  1028G11  C0FG70115   3.283   9.517  14.676
  1028G11  H01870116   3.381   9.482  14.649
  1028G11  C0FH70117   3.269   9.559  14.807
  1028G11  C0FI70118   3.379   9.575  14.898
  1028G11  H01970119   3.480   9.553  14.868
  1028G11  O00K70120   3.368   9.632  15.018
  1028G11  C0FL70121   3.240   9.648  15.067
  1028G11  C0FK70122   3.122   9.643  14.982
  1028G11  C0FM70123   2.995   9.675  15.031
  1028G11  C0FN70124   2.986   9.723  15.164
  1028G11  C0FP70125   3.101   9.710  15.249
  1028G11  C0GO70126   3.099   9.726  15.387
  1028G11  C0GN70127   3.198   9.688  15.478
  1028G11  C0GR70128   3.322   9.671  15.414
  1028G11  C0GS70129   3.438   9.637  15.493
  1028G11  H01Q70130   3.530   9.621  15.438
  1028G11  C0GT70131   3.424   9.628  15.630
  1028G11  H01O70132   3.511   9.629  15.694
  1028G11  C0GU70133   3.298   9.655  15.691
  1028G11  H01P70134   3.289   9.647  15.798
  1028G11  O00L70135   3.334   9.673  15.277
  1028G11  C0GM70136   3.186   9.684  15.616
  1028G11  C0GL70137   3.049   9.691  15.663
  1028G11  H01R70138   3.016   9.660  15.761
  1028G11  C0GK70139   2.947   9.737  15.569
  1028G11  C0GP70140   2.806   9.755  15.574
  1028G11  C0E270141   2.756   9.813  15.451
  1028G11  C0E170142   2.626   9.754  15.424
  1028G11  C0DU70143   2.577   9.695  15.303
  1028G11  C0DT70144   2.619   9.709  15.170
  1028G11  C0E470145   2.752   9.729  15.132
  1028G11  C0E570146   2.756   9.691  14.998
  1028G11  C0DS70147   2.555   9.650  15.064
  1028G11  C0DR70148   2.448   9.565  15.095
  1028G11  C0DD70149   2.380   9.483  15.004
  1028G11  C0DC70150   2.291   9.405  15.095
  1028G11  C0DP70151   2.314   9.430  15.236
  1028G11  C0DA70152   2.258   9.368  15.355
  1028G11  C0D970153   2.135   9.283  15.370
  1028G11  C0CR70154   2.101   9.227  15.497
  1028G11  C0C070155   2.188   9.223  15.602
  1028G11  C0BZ70156   2.168   9.177  15.731
  1028G11  C0C170157   2.265   9.182  15.830
  1028G11  C0C770158   2.233   9.135  15.958
  1028G11  C0C670159   2.333   9.139  16.066
  1028G11  C0C970160   2.301   9.082  16.183
  1028G11  C0B870161   2.399   9.088  16.288
  1028G11  C0B770162   2.377   9.018  16.406
  1028G11  C0B670163   2.460   9.010  16.531
  1028G11  C0B570164   2.542   9.118  16.585
  1028G11  H00Z70165   2.582   9.202  16.532
  1028G11  C0B470166   2.523   9.113  16.724
  1028G11  H01070167   2.553   9.189  16.794
  1028G11  C0B370168   2.465   8.990  16.761
  1028G11  C0AP70169   2.360   8.945  16.856
  1028G11  C0AQ70170   2.260   8.878  16.774
  1028G11  C0AR70171   2.124   8.883  16.812
  1028G11  C0AS70172   2.040   8.866  16.712
  1028G11  C0AT70173   2.072   8.870  16.575
  1028G11  C0BA70174   2.208   8.901  16.540
  1028G11  C0AU70175   1.977   8.902  16.483
  1028G11  C0BE70176   2.011   8.947  16.355
  1028G11  C0BI70177   1.911   8.979  16.269
  1028G11  C0BJ70178   1.779   8.975  16.310
  1028G11  C0BK70179   1.673   8.999  16.217
  1028G11  C0BW70180   1.707   9.023  16.087
  1028G11  C0BV70181   1.839   9.038  16.049
  1028G11  C0BU70182   1.874   9.068  15.917
  1028G11  C0BX70183   2.005   9.100  15.888
  1028G11  C0BT70184   1.776   9.076  15.822
  1028G11  C0CD70185   1.811   9.108  15.694
  1028G11  C0CB70186   1.942   9.146  15.660
  1028G11  C0CE70187   1.714   9.092  15.593
  1028G11  C0CK70188   1.582   9.063  15.624
  1028G11  C0BS70189   1.545   9.046  15.754
  1028G11  C0CJ70190   1.412   9.022  15.789
  1028G11  C0BP70191   1.373   9.015  15.929
  1028G11  C0CI70192   1.241   8.995  15.967
  1028G11  C0CH70193   1.218   8.963  16.105
  1028G11  H01270194   1.121   8.927  16.137
  1028G11  C0BN70195   1.318   8.979  16.199
  1028G11  C0CG70196   1.287   8.973  16.333
  1028G11  C0CF70197   1.150   8.992  16.376
  1028G11  H01370198   1.067   9.006  16.309
  1028G11  O00G70199   1.113   8.985  16.506
  1028G11  C0AA70200   1.210   8.986  16.601
  1028G11  C0A970201   1.166   8.991  16.735
  1028G11  H00U70202   1.061   9.000  16.758
  1028G11  C0A870203   1.263   8.986  16.837
  1028G11  H00V70204   1.226   8.999  16.937
  1028G11  C0A770205   1.406   8.978  16.811
  1028G11  C0A670206   1.450   8.970  16.672
  1028G11  C0A570207   1.580   8.954  16.624
  1028G11  C0A470208   1.690   8.923  16.716
  1028G11  C0A370209   1.716   8.934  16.855
  1028G11  C0A270210   1.631   9.001  16.943
  1028G11  C0A170211   1.664   9.020  17.083
  1028G11  C0A070212   1.790   9.021  17.157
  1028G11  C09Z70213   1.765   9.037  17.299
  1028G11  C09Y70214   1.876   9.065  17.385
  1028G11  H00Y70215   1.870   9.081  17.492
  1028G11  C09X70216   2.005   9.066  17.325
  1028G11  C09W70217   2.108   9.104  17.413
  1028G11  H00R70218   2.087   9.132  17.515
  1028G11  C0AX70219   2.240   9.117  17.375
  1028G11  H00S70220   2.311   9.141  17.453
  1028G11  C0AW70221   2.265   9.087  17.241
  1028G11  H00T70222   2.368   9.086  17.210
  1028G11  C0AN70223   2.162   9.043  17.149
  1028G11  C0AO70224   2.195   8.992  17.023
  1028G11  C0AM70225   2.028   9.037  17.190
  1028G11  C0B270226   1.639   9.049  17.367
  1028G11  O00D70227   1.622   9.067  17.490
  1028G11  C0B170228   1.515   9.046  17.291
  1028G11  H00W70229   1.417   9.072  17.328
  1028G11  C0AL70230   1.918   9.012  17.102
  1028G11  C0AK70231   1.960   8.964  16.973
  1028G11  C0B070232   1.535   9.027  17.151
  1028G11  C0AZ70233   1.429   9.002  17.063
  1028G11  H00X70234   1.328   9.008  17.099
  1028G11  C0AJ70235   1.862   8.928  16.875
  1028G11  C0AH70236   1.808   8.877  16.653
  1028G11  C0AE70237   1.614   8.957  16.484
  1028G11  C0AD70238   1.513   8.977  16.390
  1028G11  C0AY70239   1.489   8.997  16.931
  1028G11  C0AB70240   1.351   8.979  16.570
  1028G11  C0AC70241   1.382   8.978  16.433
  1028G11  C0BM70242   1.444   9.002  16.158
  1028G11  C0CM70243   1.138   9.018  15.872
  1028G11  C09M70244   1.172   8.995  15.734
  1028G11  C09870245   1.066   8.934  15.657
  1028G11  C08R70246   1.039   8.928  15.514
  1028G11  C08Q70247   0.918   8.875  15.470
  1028G11  C08P70248   0.822   8.886  15.362
  1028G11  C08Y70249   0.683   8.867  15.392
  1028G11  C09770250   0.640   8.869  15.523
  1028G11  C09670251   0.521   8.933  15.541
  1028G11  C09070252   0.462   8.939  15.410
  1028G11  C09570253   0.347   9.013  15.367
  1028G11  C09470254   0.291   9.024  15.236
  1028G11  C08J70255   0.365   9.009  15.110
  1028G11  C08I70256   0.311   9.100  15.019
  1028G11  C08H70257   0.405   9.122  14.909
  1028G11  C08G70258   0.534   9.059  14.962
  1028G11  C08F70259   0.666   9.041  14.912
  1028G11  C08E70260   0.692   9.063  14.775
  1028G11  C05970261   0.595   9.062  14.666
  1028G11  C05870262   0.636   9.067  14.532
  1028G11  C05770263   0.552   9.078  14.418
  1028G11  C05670264   0.413   9.068  14.447
  1028G11  C05570265   0.365   9.031  14.570
  1028G11  C05470266   0.235   9.089  14.575
  1028G11  C05370267   0.201   9.147  14.448
  1028G11  C05270268   0.088   9.237  14.409
  1028G11  C05170269  -0.008   9.273  14.509
  1028G11  C05U70270  -0.006   9.244  14.659
  1028G11  C05T70271   0.094   9.197  14.749
  1028G11  C06K70272   0.027   9.171  14.876
  1028G11  H00J70273   0.074   9.101  14.943
  1028G11  C06L70274  -0.104   9.224  14.872
  1028G11  H00I70275  -0.184   9.226  14.944
  1028G11  C05V70276  -0.127   9.271  14.734
  1028G11  C06J70277  -0.240   9.325  14.681
  1028G11  H00K70278  -0.321   9.342  14.750
  1028G11  C05X70279  -0.245   9.360  14.545
  1028G11  C06I70280  -0.364   9.413  14.491
  1028G11  H00L70281  -0.457   9.416  14.547
  1028G11  C04Z70282  -0.379   9.456  14.358
  1028G11  C06H70283  -0.502   9.513  14.303
  1028G11  H00H70284  -0.588   9.526  14.366
  1028G11  C04Y70285  -0.497   9.566  14.167
  1028G11  C06G70286  -0.622   9.631  14.121
  1028G11  O00970287  -0.730   9.630  14.183
  1028G11  O00870288  -0.599   9.709  14.006
  1028G11  C04P70289  -0.485   9.698  13.928
  1028G11  C04J70290  -0.469   9.770  13.804
  1028G11  C04Q70291  -0.562   9.860  13.737
  1028G11  H00E70292  -0.662   9.869  13.778
  1028G11  C04M70293  -0.527   9.935  13.625
  1028G11  C04R70294  -0.605  10.039  13.571
  1028G11  H00F70295  -0.703  10.058  13.612
  1028G11  C04S70296  -0.561  10.114  13.466
  1028G11  H00G70297  -0.630  10.185  13.423
  1028G11  O00770298  -0.447  10.093  13.404
  1028G11  C03V70299  -0.367  10.003  13.462
  1028G11  C03U70300  -0.244   9.994  13.403
  1028G11  O00670301  -0.203  10.093  13.320
  1028G11  C03F70302  -0.086  10.079  13.257
  1028G11  C03E70303   0.010   9.984  13.295
  1028G11  C03D70304  -0.021   9.898  13.402
  1028G11  C03C70305   0.079   9.807  13.450
  1028G11  C03B70306   0.201   9.816  13.383
  1028G11  C03A70307   0.310   9.742  13.432
  1028G11  C03970308   0.295   9.662  13.553
  1028G11  C03870309   0.433   9.614  13.580
  1028G11  C03770310   0.508   9.680  13.482
  1028G11  C03670311   0.641   9.648  13.460
  1028G11  C02R70312   0.730   9.700  13.366
  1028G11  C03570313   0.850   9.645  13.417
  1028G11  C03R70314   0.835   9.575  13.528
  1028G11  C03S70315   0.929   9.544  13.627
  1028G11  C04970316   0.886   9.491  13.745
  1028G11  C04870317   0.745   9.470  13.756
  1028G11  C03P70318   0.639   9.517  13.665
  1028G11  C04770319   0.717   9.404  13.882
  1028G11  C04670320   0.592   9.360  13.922
  1028G11  C04570321   0.463   9.387  13.872
  1028G11  C03T70322   0.419   9.460  13.767
  1028G11  C04470323   0.274   9.465  13.767
  1028G11  C04370324   0.241   9.368  13.862
  1028G11  C04270325   0.121   9.408  13.922
  1028G11  C04170326   0.067   9.510  13.823
  1028G11  C04070327  -0.057   9.579  13.836
  1028G11  C03Z70328  -0.112   9.673  13.740
  1028G11  C04H70329  -0.246   9.688  13.787
  1028G11  C04G70330  -0.266   9.614  13.904
  1028G11  C03N70331  -0.079   9.738  13.616
  1028G11  C03Y70332  -0.182   9.817  13.563
  1028G11  C03X70333  -0.307   9.832  13.622
  1028G11  C04F70334  -0.151   9.551  13.940
  1028G11  C04E70335  -0.151   9.483  14.063
  1028G11  C04O70336  -0.267   9.488  14.145
  1028G11  C04D70337  -0.043   9.407  14.111
  1028G11  C04V70338  -0.043   9.364  14.244
  1028G11  C04W70339  -0.152   9.379  14.331
  1028G11  C04C70340   0.076   9.365  14.053
  1028G11  C04L70341   0.147   9.283  14.152
  1028G11  C04U70342   0.268   9.202  14.130
  1028G11  C05Q70343   0.344   9.144  14.238
  1028G11  C05P70344   0.476   9.147  14.202
  1028G11  C04T70345   0.490   9.210  14.080
  1028G11  C04B70346   0.364   9.242  14.037
  1028G11  C03M70347   0.164   9.548  13.718
  1028G11  C04A70348   0.353   9.323  13.929
  1028G11  C05H70349   0.607   9.274  14.026
  1028G11  C05G70350   0.745   9.268  14.061
  1028G11  C05F70351   0.804   9.183  14.160
  1028G11  C05E70352   0.935   9.216  14.217
  1028G11  C05L70353   1.058   9.287  14.183
  1028G11  C05K70354   1.067   9.361  14.057
  1028G11  C05J70355   0.962   9.389  13.959
  1028G11  C06670356   1.197   9.409  14.027
  1028G11  C06570357   1.303   9.391  14.115
  1028G11  C06470358   1.292   9.323  14.243
  1028G11  C06N70359   1.430   9.449  14.092
  1028G11  C06970360   1.451   9.516  13.970
  1028G11  C06P70361   1.577   9.573  13.947
  1028G11  C06R70362   1.600   9.647  13.828
  1028G11  C06B70363   1.498   9.664  13.737
  1028G11  C06S70364   1.522   9.740  13.623
  1028G11  C02G70365   1.420   9.761  13.533
  1028G11  C02F70366   1.439   9.832  13.416
  1028G11  C02770367   1.563   9.888  13.396
  1028G11  C02670368   1.583   9.966  13.286
  1028G11  C00E70369   1.704  10.016  13.258
  1028G11  C00D70370   1.722  10.094  13.149
  1028G11  C00C70371   1.839  10.152  13.133
  1028G11  C00B70372   1.946  10.141  13.211
  1028G11  C01570373   1.934  10.054  13.321
  1028G11  C07F70374   2.036  10.041  13.411
  1028G11  C07E70375   2.016   9.960  13.526
  1028G11  C06W70376   1.894   9.897  13.545
  1028G11  C06V70377   1.792   9.917  13.456
  1028G11  C06X70378   1.874   9.821  13.661
  1028G11  C07B70379   1.979   9.805  13.746
  1028G11  C07C70380   2.105   9.865  13.723
  1028G11  C0FU70381   2.203   9.855  13.819
  1028G11  C0F770382   2.327   9.914  13.795
  1028G11  C0F670383   2.422   9.906  13.898
  1028G11  C0F870384   2.545   9.961  13.870
  1028G11  C0F970385   2.639   9.969  13.974
  1028G11  C0FA70386   2.756  10.046  13.955
  1028G11  C0FZ70387   2.783  10.105  13.835
  1028G11  C0G070388   2.893  10.188  13.828
  1028G11  C0GD70389   2.978  10.222  13.929
  1028G11  C0FC70390   2.954  10.153  14.053
  1028G11  C0GH70391   3.044  10.173  14.160
  1028G11  C0EY70392   3.033  10.091  14.272
  1028G11  C0EX70393   3.117  10.111  14.381
  1028G11  C0EW70394   3.113  10.026  14.489
  1028G11  C0FR70395   3.201  10.042  14.600
  1028G11  H01D70396   3.184   9.989  14.693
  1028G11  C0FS70397   3.290  10.147  14.610
  1028G11  H01C70398   3.355  10.161  14.695
  1028G11  C0GJ70399   3.292  10.230  14.498
  1028G11  H01N70400   3.360  10.313  14.499
  1028G11  C0EV70401   3.006   9.937  14.496
  1028G11  C0FT70402   2.996   9.848  14.611
  1028G11  H01E70403   3.063   9.839  14.696
  1028G11  C0EU70404   2.911   9.931  14.394
  1028G11  C0ET70405   2.788   9.869  14.412
  1028G11  C0EI70406   2.681   9.860  14.322
  1028G11  C0F170407   2.708   9.918  14.197
  1028G11  C0F070408   2.832   9.994  14.181
  1028G11  C0EH70409   2.562   9.792  14.355
  1028G11  C0EG70410   2.536   9.731  14.484
  1028G11  C0EJ70411   2.469   9.785  14.250
  1028G11  C0F370412   2.493   9.849  14.124
  1028G11  C0EK70413   2.351   9.721  14.273
  1028G11  C0EL70414   2.316   9.657  14.397
  1028G11  C0EM70415   2.181   9.604  14.404
  1028G11  C0EN70416   2.099   9.605  14.294
  1028G11  C07I70417   1.979   9.540  14.313
  1028G11  C07470418   1.876   9.544  14.216
  1028G11  C07370419   1.762   9.476  14.243
  1028G11  C07270420   1.660   9.485  14.151
  1028G11  C07570421   1.907   9.603  14.101
  1028G11  C07670422   2.033   9.663  14.078
  1028G11  C07870423   2.062   9.722  13.957
  1028G11  C07G70424   1.803   9.614  14.010
  1028G11  C07070425   1.827   9.683  13.893
  1028G11  C07Z70426   1.967   9.493  14.442
  1028G11  C07770427   2.132   9.667  14.173
  1028G11  C0EO70428   2.257   9.722  14.163
  1028G11  C0F470429   2.279   9.779  14.038
  1028G11  C0EQ70430   2.770   9.793  14.527
  1028G11  C0FQ70431   3.212  10.213  14.382
  1028G11  C0GI70432   3.215  10.293  14.267
  1028G11  H01L70433   3.277  10.381  14.261
  1028G11  C0EZ70434   2.923  10.005  14.282
  1028G11  C0GG70435   3.145  10.271  14.154
  1028G11  C0GF70436   3.161  10.341  14.036
  1028G11  H01M70437   3.232  10.422  14.024
  1028G11  C0GE70438   3.084  10.310  13.925
  1028G11  H01K70439   3.093  10.366  13.833
  1028G11  O00J70440   2.926  10.248  13.704
  1028G11  C0GA70441   2.832  10.243  13.606
  1028G11  C0G970442   2.858  10.320  13.493
  1028G11  H01H70443   2.952  10.371  13.478
  1028G11  C0G870444   2.767  10.321  13.385
  1028G11  C0G770445   2.790  10.387  13.259
  1028G11  H01I70446   2.886  10.434  13.246
  1028G11  O00I70447   2.704  10.365  13.151
  1028G11  C0G670448   2.578  10.319  13.181
  1028G11  H01J70449   2.510  10.302  13.099
  1028G11  C02D70450   2.542  10.270  13.308
  1028G11  C02C70451   2.412  10.223  13.335
  1028G11  C01770452   2.300  10.247  13.252
  1028G11  C01670453   2.170  10.192  13.274
  1028G11  O00170454   2.305  10.343  13.153
  1028G11  C01870455   2.200  10.378  13.069
  1028G11  C00970456   2.075  10.313  13.084
  1028G11  C00870457   1.956  10.346  13.018
  1028G11  C00770458   1.904  10.445  12.926
  1028G11  C00670459   1.982  10.540  12.861
  1028G11  C00570460   1.933  10.635  12.765
  1028G11  C00470461   1.800  10.661  12.713
  1028G11  C00370462   1.671  10.605  12.752
  1028G11  C00270463   1.548  10.666  12.705
  1028G11  C00P70464   1.426  10.611  12.735
  1028G11  C00O70465   1.304  10.680  12.703
  1028G11  C00N70466   1.178  10.630  12.738
  1028G11  C01070467   1.060  10.699  12.714
  1028G11  C01170468   0.936  10.645  12.757
  1028G11  C01Q70469   0.822  10.722  12.750
  1028G11  C01U70470   0.825  10.856  12.697
  1028G11  C01270471   0.951  10.902  12.643
  1028G11  H00070472   0.963  10.997  12.593
  1028G11  C01V70473   0.702  10.926  12.691
  1028G11  H00770474   0.703  11.027  12.650
  1028G11  O00570475   0.589  10.890  12.757
  1028G11  C01W70476   0.583  10.762  12.791
  1028G11  C03170477   0.457  10.716  12.839
  1028G11  C03270478   0.445  10.589  12.903
  1028G11  H00A70479   0.346  10.573  12.944
  1028G11  C03370480   0.567  10.520  12.927
  1028G11  H00B70481   0.568  10.432  12.990
  1028G11  C01O70482   0.690  10.554  12.866
  1028G11  C01N70483   0.796  10.464  12.863
  1028G11  C01M70484   0.787  10.317  12.907
  1028G11  C01L70485   0.698  10.215  12.977
  1028G11  C01K70486   0.785  10.115  13.024
  1028G11  C01Y70487   0.765  10.008  13.110
  1028G11  C02I70488   0.636   9.982  13.155
  1028G11  C02N70489   0.610   9.882  13.243
  1028G11  C02M70490   0.479   9.856  13.292
  1028G11  C02L70491   0.372   9.923  13.234
  1028G11  C02K70492   0.402  10.027  13.134
  1028G11  C02U70493   0.290  10.090  13.075
  1028G11  C02V70494   0.164  10.077  13.130
  1028G11  C03H70495   0.061  10.172  13.095
  1028G11  H00C70496   0.084  10.261  13.039
  1028G11  C02W70497   0.314  10.179  12.969
  1028G11  C02X70498   0.441  10.210  12.937
  1028G11  C02Y70499   0.418  10.274  12.809
  1028G11  H00870500   0.477  10.313  12.728
  1028G11  C02Z70501   0.277  10.263  12.776
  1028G11  O00470502   0.221  10.291  12.668
  1028G11  O00370503   0.222  10.204  12.877
  1028G11  C02J70504   0.536  10.061  13.094
  1028G11  C01Z70505   0.878   9.943  13.155
  1028G11  C02070506   1.007   9.982  13.116
  1028G11  C01I70507   1.026  10.077  13.017
  1028G11  C01H70508   1.147  10.142  12.996
  1028G11  C00K70509   1.159  10.256  12.924
  1028G11  C01S70510   1.045  10.320  12.877
  1028G11  C01470511   1.045  10.445  12.824
  1028G11  C00J70512   1.278  10.316  12.901
  1028G11  C00I70513   1.395  10.259  12.955
  1028G11  C00H70514   1.382  10.149  13.037
  1028G11  C00G70515   1.491  10.097  13.103
  1028G11  C00S70516   1.516  10.307  12.926
  1028G11  C00T70517   1.621  10.239  12.978
  1028G11  C00U70518   1.744  10.297  12.958
  1028G11  C00R70519   1.530  10.425  12.854
  1028G11  C00L70520   1.291  10.436  12.836
  1028G11  C02870521   1.259  10.094  13.064
  1028G11  C02370522   1.245   9.992  13.161
  1028G11  C02470523   1.349   9.959  13.241
  1028G11  C02170524   1.116   9.939  13.184
  1028G11  C02270525   1.103   9.856  13.290
  1028G11  C02H70526   1.214   9.816  13.368
  1028G11  C03070527   1.196   9.734  13.478
  1028G11  C03470528   1.076   9.676  13.496
  1028G11  C02P70529   0.979   9.804  13.313
  1028G11  C02B70530   0.862   9.851  13.248
  1028G11  C01J70531   0.912  10.140  12.969
  1028G11  C01X70532   0.562  10.177  13.007
  1028G11  C01T70533   0.915  10.259  12.902
  1028G11  H00970534   0.368  10.778  12.843
  1028G11  C01P70535   0.697  10.675  12.799
  1028G11  C01R70536   0.923  10.518  12.815
  1028G11  C00Z70537   1.065  10.820  12.645
  1028G11  O00070538   1.187  10.875  12.607
  1028G11  C00M70539   1.171  10.505  12.796
  1028G11  C00Y70540   1.305  10.804  12.638
  1028G11  C01370541   1.433  10.852  12.600
  1028G11  H00170542   1.435  10.941  12.539
  1028G11  C00Q70543   1.418  10.492  12.811
  1028G11  C00170544   1.555  10.785  12.636
  1028G11  C00070545   1.677  10.819  12.578
  1028G11  H00670546   1.685  10.905  12.514
  1028G11  C00W70547   1.657  10.488  12.827
  1028G11  C01G70548   1.798  10.759  12.618
  1028G11  H00570549   1.889  10.803  12.580
  1028G11  C01C70550   2.057  10.691  12.718
  1028G11  H00270551   2.069  10.766  12.641
  1028G11  C01B70552   2.169  10.637  12.787
  1028G11  C01D70553   2.302  10.672  12.776
  1028G11  H00370554   2.337  10.743  12.702
  1028G11  C01E70555   2.387  10.612  12.859
  1028G11  H00470556   2.493  10.630  12.849
  1028G11  O00270557   2.351  10.526  12.960
  1028G11  C01A70558   2.121  10.543  12.882
  1028G11  C00V70559   1.766  10.424  12.898
  1028G11  C01970560   2.222  10.479  12.968
  1028G11  C02E70561   2.391  10.146  13.445
  1028G11  C0FX70562   2.493  10.123  13.538
  1028G11  C0FW70563   2.471  10.044  13.651
  1028G11  C0GB70564   2.613  10.187  13.521
  1028G11  C0G370565   2.265  10.084  13.471
  1028G11  C07H70566   2.249  10.004  13.590
  1028G11  C0GC70567   2.646  10.259  13.406
  1028G11  C0G270568   2.712  10.172  13.618
  1028G11  C0G170569   2.694  10.099  13.730
  1028G11  C0FB70570   2.846  10.060  14.063
  1028G11  C0F270571   2.612   9.916  14.098
  1028G11  C0FY70572   2.569  10.027  13.748
  1028G11  C0F570573   2.395   9.846  14.019
  1028G11  C0FV70574   2.352   9.985  13.679
  1028G11  C07970575   2.183   9.781  13.934
  1028G11  C07A70576   1.959   9.732  13.865
  1028G11  C06Y70577   1.749   9.769  13.684
  1028G11  C07D70578   2.127   9.941  13.609
  1028G11  C01F70579   2.155  10.105  13.384
  1028G11  C00A70580   2.065  10.218  13.185
  1028G11  C00X70581   1.853  10.251  13.033
  1028G11  C00F70582   1.615  10.134  13.066
  1028G11  C02970583   1.810   9.988  13.342
  1028G11  C02570584   1.475  10.007  13.211
  1028G11  C06U70585   1.670   9.862  13.481
  1028G11  C02A70586   1.336   9.863  13.339
  1028G11  C05Y70587   1.294   9.713  13.564
  1028G11  C05Z70588   1.272   9.629  13.677
  1028G11  C06070589   1.149   9.575  13.701
  1028G11  C06270590   1.118   9.510  13.819
  1028G11  C06T70591   1.646   9.785  13.592
  1028G11  C06A70592   1.370   9.614  13.769
  1028G11  C06Z70593   1.727   9.703  13.803
  1028G11  C06Q70594   1.678   9.559  14.034
  1028G11  C06870595   1.346   9.540  13.882
  1028G11  C06770596   1.219   9.489  13.908
  1028G11  C06370597   1.166   9.272  14.273
  1028G11  C06C70598   1.147   9.220  14.402
  1028G11  C06D70599   1.024   9.170  14.445
  1028G11  C06E70600   0.990   9.131  14.574
  1028G11  C07Q70601   1.093   9.127  14.662
  1028G11  C07P70602   1.222   9.160  14.624
  1028G11  C07T70603   1.324   9.142  14.713
  1028G11  C07U70604   1.453   9.185  14.676
  1028G11  C07V70605   1.558   9.168  14.767
  1028G11  C08470606   1.534   9.116  14.897
  1028G11  C08C70607   1.404   9.086  14.931
  1028G11  C08B70608   1.376   9.056  15.061
  1028G11  C08A70609   1.245   9.023  15.089
  1028G11  C08970610   1.135   9.022  15.001
  1028G11  C08870611   1.004   9.004  15.053
  1028G11  C08770612   0.900   9.020  14.964
  1028G11  C08670613   0.931   9.062  14.830
  1028G11  C08X70614   0.979   8.977  15.185
  1028G11  C08T70615   1.094   9.003  15.275
  1028G11  C08D70616   1.168   9.055  14.871
  1028G11  C08U70617   1.221   9.009  15.218
  1028G11  C08V70618   1.317   9.006  15.321
  1028G11  C0CY70619   1.448   9.035  15.291
  1028G11  C0CX70620   1.534   9.052  15.390
  1028G11  C0CW70621   1.656   9.098  15.361
  1028G11  C0CV70622   1.691   9.116  15.227
  1028G11  C0D470623   1.605   9.091  15.127
  1028G11  C0CU70624   1.818   9.163  15.203
  1028G11  C0CT70625   1.909   9.200  15.303
  1028G11  C0CS70626   1.874   9.173  15.433
  1028G11  C0D670627   1.847   9.178  15.068
  1028G11  C0EC70628   1.761   9.161  14.964
  1028G11  C07X70629   1.788   9.203  14.830
  1028G11  C0DL70630   1.970   9.236  15.042
  1028G11  C0DK70631   2.002   9.263  14.913
  1028G11  C0DN70632   2.128   9.316  14.923
  1028G11  C0D870633   2.073   9.261  15.132
  1028G11  C08W70634   1.264   9.006  15.444
  1028G11  C0CQ70635   1.356   9.017  15.555
  1028G11  C09370636   1.475   9.060  15.157
  1028G11  C09270637   1.636   9.120  14.996
  1028G11  C08570638   1.299   9.086  14.840
  1028G11  C07S70639   1.063   9.079  14.790
  1028G11  C06F70640   0.860   9.099  14.609
  1028G11  C07O70641   1.247   9.213  14.494
  1028G11  C07N70642   1.370   9.263  14.462
  1028G11  C05D70643   0.930   9.159  14.345
  1028G11  C05C70644   0.804   9.112  14.380
  1028G11  C05N70645   0.726   9.130  14.268
  1028G11  C05M70646   0.821   9.348  13.964
  1028G11  C05I70647   0.987   9.465  13.844
  1028G11  C06170648   1.050   9.596  13.606
  1028G11  C02Q70649   0.970   9.712  13.412
  1028G11  C02O70650   0.732   9.814  13.289
  1028G11  C03Q70651   0.704   9.572  13.551
  1028G11  C03O70652   0.499   9.529  13.680
  1028G11  C03L70653   0.165   9.644  13.615
  1028G11  C02S70654   0.441   9.765  13.396
  1028G11  C02T70655   0.236   9.902  13.277
  1028G11  C03K70656   0.053   9.727  13.561
  1028G11  C03I70657   0.136   9.987  13.235
  1028G11  C03G70658  -0.062  10.172  13.157
  1028G11  H00D70659  -0.129  10.251  13.127
  1028G11  C03J70660  -0.150   9.894  13.453
  1028G11  C03W70661  -0.401   9.921  13.568
  1028G11  C04I70662  -0.351   9.764  13.733
  1028G11  C04K70663  -0.379   9.628  13.977
  1028G11  C04N70664  -0.378   9.560  14.094
  1028G11  C04X70665  -0.267   9.437  14.280
  1028G11  C05070666  -0.130   9.339  14.466
  1028G11  C05W70667   0.072   9.291  14.277
  1028G11  C05S70668   0.218   9.140  14.708
  1028G11  C05R70669   0.310   9.113  14.368
  1028G11  C05O70670   0.591   9.115  14.286
  1028G11  C05B70671   0.765   9.091  14.512
  1028G11  C05A70672   0.451   9.067  14.677
  1028G11  C07R70673   0.828   9.071  14.736
  1028G11  C08N70674   0.765   9.010  15.008
  1028G11  C08M70675   0.742   8.972  15.148
  1028G11  C08L70676   0.606   8.962  15.183
  1028G11  C09170677   0.359   9.114  14.775
  1028G11  C09K70678   0.224   9.186  15.097
  1028G11  H00M70679   0.188   9.279  15.057
  1028G11  C08K70680   0.507   9.007  15.089
  1028G11  C09J70681   0.202   9.130  15.223
  1028G11  C09I70682   0.175   9.161  15.364
  1028G11  C09L70683   0.063   9.217  15.431
  1028G11  H00N70684  -0.025   9.257  15.381
  1028G11  C09Q70685   0.064   9.225  15.565
  1028G11  H00O70686  -0.021   9.276  15.608
  1028G11  O00B70687   0.167   9.186  15.648
  1028G11  C09G70688   0.270   9.111  15.593
  1028G11  C09F70689   0.369   9.069  15.683
  1028G11  O00A70690   0.328   9.103  15.811
  1028G11  C09P70691   0.410   9.067  15.917
  1028G11  H00P70692   0.357   9.048  16.010
  1028G11  C09O70693   0.555   9.057  15.899
  1028G11  C09D70694   0.589   8.992  15.773
  1028G11  C09C70695   0.715   8.929  15.738
  1028G11  C09N70696   0.847   8.942  15.792
  1028G11  C09T70697   0.879   9.042  15.882
  1028G11  C09S70698   0.789   9.095  15.983
  1028G11  C0CP70699   0.874   9.155  16.075
  1028G11  C0CN70700   1.006   9.144  16.043
  1028G11  C0CO70701   1.095   9.217  16.124
  1028G11  H01470702   1.201   9.218  16.103
  1028G11  C0CZ70703   1.045   9.286  16.233
  1028G11  H01570704   1.110   9.344  16.297
  1028G11  C0D070705   0.904   9.297  16.266
  1028G11  C0G570706   0.845   9.361  16.385
  1028G11  H01F70707   0.916   9.404  16.455
  1028G11  C0G470708   0.711   9.362  16.401
  1028G11  H01G70709   0.681   9.419  16.488
  1028G11  O00H70710   0.622   9.300  16.311
  1028G11  C0D270711   0.680   9.238  16.203
  1028G11  C09V70712   0.598   9.171  16.114
  1028G11  H00Q70713   0.498   9.181  16.151
  1028G11  C0D170714   0.816   9.230  16.179
  1028G11  C09R70715   0.647   9.105  15.997
  1028G11  C09H70716   0.271   9.099  15.451
  1028G11  C09E70717   0.487   8.989  15.666
  1028G11  C09B70718   0.733   8.863  15.618
  1028G11  C08Z70719   0.580   8.922  15.319
  1028G11  C08O70720   0.848   8.947  15.235
  1028G11  C09A70721   0.868   8.834  15.594
  1028G11  C08S70722   1.118   8.996  15.420
  1028G11  C09970723   0.944   8.872  15.706
  1028G11  C09U70724   1.014   9.065  15.929
  1028G11  C0BO70725   1.477   9.008  16.024
  1028G11  C0CL70726   1.310   9.008  15.688
  1028G11  C0D370727   1.491   9.038  15.520
  1028G11  C0D570728   1.748   9.118  15.462
  1028G11  C0BR70729   1.643   9.051  15.855
  1028G11  C0BQ70730   1.611   9.026  15.986
  1028G11  C0BL70731   1.542   8.989  16.253
  1028G11  C0AF70732   1.742   8.948  16.440
  1028G11  C0BH70733   1.939   9.021  16.141
  1028G11  C0BG70734   2.071   9.053  16.113
  1028G11  C0BD70735   2.144   8.972  16.322
  1028G11  C0AG70736   1.843   8.908  16.521
  1028G11  C0AI70737   1.909   8.892  16.748
  1028G11  C0AV70738   2.093   8.945  16.933
  1028G11  C0BB70739   2.305   8.887  16.641
  1028G11  O00C70740   2.329   8.995  16.987
  1028G11  C0BC70741   2.435   8.927  16.632
  1028G11  C0B970742   2.251   8.956  16.417
  1028G11  O00E70743   2.518   9.146  16.272
  1028G11  C0CA70744   2.561   9.186  16.150
  1028G11  O00F70745   2.674   9.242  16.137
  1028G11  C0BF70746   2.170   9.039  16.203
  1028G11  C0C570747   2.460   9.184  16.045
  1028G11  C0C470748   2.493   9.231  15.913
  1028G11  H01170749   2.588   9.276  15.891
  1028G11  C0C870750   2.103   9.097  15.985
  1028G11  C0C270751   2.390   9.235  15.811
  1028G11  C0C370752   2.402   9.302  15.684
  1028G11  C0DY70753   2.500   9.388  15.647
  1028G11  H01670754   2.583   9.422  15.707
  1028G11  C0DX70755   2.456   9.440  15.517
  1028G11  C0DW70756   2.501   9.568  15.473
  1028G11  C0BY70757   2.038   9.142  15.762
  1028G11  C0DB70758   2.309   9.288  15.583
  1028G11  C0CC70759   1.971   9.182  15.529
  1028G11  C0D770760   2.036   9.251  15.270
  1028G11  C0DZ70761   2.340   9.367  15.471
  1028G11  C0DM70762   2.184   9.312  15.055
  1028G11  C0DQ70763   2.411   9.532  15.234
  1028G11  C0DV70764   2.482   9.600  15.334
  1028G11  C0E070765   2.593   9.667  15.532
  1028G11  C0FO70766   2.860   9.794  15.358
  1028G11  C0E370767   2.713   9.648  15.613
  1028G11  H01770768   2.747   9.553  15.651
  1028G11  C0GV70769   2.976   9.773  15.440
  1028G11  C0ES70770   2.860   9.761  15.220
  1028G11  C0GQ70771   3.227   9.681  15.199
  1028G11  C0FJ70772   3.141   9.600  14.846
  1028G11  C0ED70773   2.885   9.674  14.944
  1028G11  C0ER70774   2.873   9.773  14.620
  1028G11  C0EP70775   2.653   9.735  14.572
  1028G11  C0E670776   2.631   9.651  14.944
  1028G11  C0DE70777   2.390   9.494  14.858
  1028G11  C0EA70778   2.411   9.660  14.501
  1028G11  C0DF70779   2.295   9.426  14.775
  1028G11  C08070780   2.096   9.529  14.499
  1028G11  C0DO70781   2.168   9.374  14.807
  1028G11  C0DJ70782   1.908   9.262  14.803
  1028G11  C07K70783   1.850   9.409  14.470
  1028G11  C07W70784   1.687   9.216  14.737
  1028G11  C08370785   1.477   9.246  14.552
  1028G11  C07J70786   1.751   9.415  14.370
  1028G11  C06O70787   1.535   9.438  14.183
  1028G11  C06M70788   1.400   9.323  14.338
  1038G11  C07170789   6.055   5.967   5.327
  1038G11  C07L70790   6.051   5.830   5.340
  1038G11  C07M70791   5.936   5.766   5.376
  1038G11  C07Y70792   5.936   5.621   5.399
  1038G11  C08170793   6.045   5.539   5.375
  1038G11  C08270794   6.027   5.398   5.390
  1038G11  C0DI70795   6.118   5.294   5.346
  1038G11  C0DH70796   6.257   5.289   5.305
  1038G11  C0DG70797   6.297   5.154   5.270
  1038G11  C0E970798   6.428   5.088   5.281
  1038G11  C0E870799   6.390   4.955   5.349
  1038G11  C0E770800   6.475   4.846   5.384
  1038G11  C0EB70801   6.608   4.844   5.335
  1038G11  C0EF70802   6.707   4.742   5.361
  1038G11  C0EE70803   6.733   4.666   5.471
  1038G11  C0FD70804   6.871   4.671   5.527
  1038G11  C0FE70805   6.970   4.765   5.501
  1038G11  H01B70806   6.954   4.861   5.455
  1038G11  C0FF70807   7.098   4.764   5.556
  1038G11  H01A70808   7.175   4.837   5.540
  1038G11  C0FG70809   7.128   4.649   5.637
  1038G11  H01870810   7.227   4.651   5.681
  1038G11  C0FH70811   7.035   4.546   5.663
  1038G11  C0FI70812   7.072   4.427   5.733
  1038G11  H01970813   7.169   4.425   5.779
  1038G11  O00K70814   6.977   4.324   5.753
  1038G11  C0FL70815   6.855   4.349   5.705
  1038G11  C0FK70816   6.812   4.462   5.628
  1038G11  C0FM70817   6.679   4.471   5.584
  1038G11  C0FN70818   6.593   4.364   5.609
  1038G11  C0FP70819   6.634   4.260   5.693
  1038G11  C0GO70820   6.551   4.162   5.737
  1038G11  C0GN70821   6.569   4.063   5.834
  1038G11  C0GR70822   6.705   4.061   5.880
  1038G11  C0GS70823   6.730   3.967   5.975
  1038G11  H01Q70824   6.829   3.966   6.018
  1038G11  C0GT70825   6.634   3.873   6.019
  1038G11  H01O70826   6.659   3.788   6.080
  1038G11  C0GU70827   6.502   3.892   5.979
  1038G11  H01P70828   6.424   3.833   6.025
  1038G11  O00L70829   6.804   4.155   5.836
  1038G11  C0GM70830   6.460   3.983   5.880
  1038G11  C0GL70831   6.330   4.006   5.831
  1038G11  H01R70832   6.245   3.959   5.877
  1038G11  C0GK70833   6.314   4.097   5.730
  1038G11  C0GP70834   6.201   4.150   5.653
  1038G11  C0E270835   6.246   4.226   5.541
  1038G11  C0E170836   6.143   4.316   5.495
  1038G11  C0DU70837   6.163   4.458   5.489
  1038G11  C0DT70838   6.288   4.527   5.471
  1038G11  C0E470839   6.414   4.479   5.492
  1038G11  C0E570840   6.492   4.598   5.487
  1038G11  C0DS70841   6.289   4.671   5.462
  1038G11  C0DR70842   6.165   4.730   5.471
  1038G11  C0DD70843   6.137   4.866   5.442
  1038G11  C0DC70844   5.990   4.876   5.478
  1038G11  C0DP70845   5.931   4.754   5.525
  1038G11  C0DA70846   5.790   4.726   5.580
  1038G11  C0D970847   5.670   4.816   5.602
  1038G11  C0CR70848   5.549   4.771   5.663
  1038G11  C0C070849   5.538   4.643   5.712
  1038G11  C0BZ70850   5.429   4.584   5.774
  1038G11  C0C170851   5.429   4.457   5.834
  1038G11  C0C770852   5.315   4.404   5.897
  1038G11  C0C670853   5.319   4.278   5.953
  1038G11  C0C970854   5.205   4.228   6.013
  1038G11  C0B870855   5.206   4.103   6.078
  1038G11  C0B770856   5.084   4.046   6.126
  1038G11  C0B670857   5.068   3.918   6.195
  1038G11  C0B570858   5.144   3.870   6.310
  1038G11  H00Z70859   5.245   3.894   6.338
  1038G11  C0B470860   5.058   3.782   6.391
  1038G11  H01070861   5.073   3.744   6.491
  1038G11  C0B370862   4.932   3.786   6.331
  1038G11  C0AP70863   4.796   3.807   6.370
  1038G11  C0AQ70864   4.742   3.893   6.271
  1038G11  C0AR70865   4.632   3.980   6.301
  1038G11  C0AS70866   4.623   4.092   6.222
  1038G11  C0AT70867   4.730   4.138   6.147
  1038G11  C0BA70868   4.842   4.061   6.135
  1038G11  C0AU70869   4.731   4.268   6.101
  1038G11  C0BE70870   4.849   4.317   6.046
  1038G11  C0BI70871   4.855   4.455   6.019
  1038G11  C0BJ70872   4.750   4.535   6.052
  1038G11  C0BK70873   4.760   4.673   6.037
  1038G11  C0BW70874   4.869   4.724   5.968
  1038G11  C0BV70875   4.977   4.643   5.938
  1038G11  C0BU70876   5.084   4.691   5.873
  1038G11  C0BX70877   5.198   4.612   5.849
  1038G11  C0BT70878   5.086   4.828   5.846
  1038G11  C0CD70879   5.205   4.879   5.779
  1038G11  C0CB70880   5.313   4.796   5.750
  1038G11  C0CE70881   5.216   5.015   5.756
  1038G11  C0CK70882   5.103   5.098   5.782
  1038G11  C0BS70883   4.989   5.051   5.842
  1038G11  C0CJ70884   4.878   5.129   5.866
  1038G11  C0BP70885   4.767   5.073   5.928
  1038G11  C0CI70886   4.652   5.151   5.948
  1038G11  C0CH70887   4.554   5.104   6.033
  1038G11  H01270888   4.481   5.178   6.062
  1038G11  C0BN70889   4.558   4.975   6.083
  1038G11  C0CG70890   4.463   4.932   6.169
  1038G11  C0CF70891   4.364   5.020   6.225
  1038G11  H01370892   4.370   5.127   6.208
  1038G11  O00G70893   4.273   4.981   6.312
  1038G11  C0AA70894   4.271   4.845   6.343
  1038G11  C0A970895   4.181   4.818   6.447
  1038G11  H00U70896   4.118   4.885   6.503
  1038G11  C0A870897   4.169   4.684   6.490
  1038G11  H00V70898   4.100   4.673   6.572
  1038G11  C0A770899   4.239   4.577   6.419
  1038G11  C0A670900   4.347   4.609   6.325
  1038G11  C0A570901   4.435   4.525   6.258
  1038G11  C0A470902   4.426   4.378   6.278
  1038G11  C0A370903   4.368   4.289   6.372
  1038G11  C0A270904   4.279   4.324   6.476
  1038G11  C0A170905   4.213   4.226   6.553
  1038G11  C0A070906   4.240   4.086   6.587
  1038G11  C09Z70907   4.147   4.036   6.677
  1038G11  C09Y70908   4.175   3.912   6.746
  1038G11  H00Y70909   4.109   3.888   6.828
  1038G11  C09X70910   4.297   3.843   6.716
  1038G11  C09W70911   4.332   3.732   6.800
  1038G11  H00R70912   4.256   3.703   6.871
  1038G11  C0AX70913   4.450   3.660   6.775
  1038G11  H00S70914   4.470   3.571   6.832
  1038G11  C0AW70915   4.535   3.697   6.671
  1038G11  H00T70916   4.626   3.641   6.653
  1038G11  C0AN70917   4.511   3.817   6.596
  1038G11  C0AO70918   4.598   3.859   6.498
  1038G11  C0AM70919   4.390   3.892   6.621
  1038G11  C0B270920   4.021   4.094   6.715
  1038G11  O00D70921   3.934   4.030   6.774
  1038G11  C0B170922   4.003   4.227   6.681
  1038G11  H00W70923   3.916   4.276   6.721
  1038G11  C0AL70924   4.359   4.015   6.556
  1038G11  C0AK70925   4.448   4.052   6.451
  1038G11  C0B070926   4.100   4.290   6.602
  1038G11  C0AZ70927   4.089   4.421   6.552
  1038G11  H00X70928   4.007   4.489   6.567
  1038G11  C0AJ70929   4.432   4.165   6.364
  1038G11  C0AH70930   4.513   4.304   6.203
  1038G11  C0AE70931   4.536   4.569   6.166
  1038G11  C0AD70932   4.550   4.704   6.145
  1038G11  C0AY70933   4.209   4.448   6.479
  1038G11  C0AB70934   4.358   4.746   6.289
  1038G11  C0AC70935   4.456   4.795   6.202
  1038G11  C0BM70936   4.656   4.889   6.043
  1038G11  C0CM70937   4.641   5.272   5.875
  1038G11  C09M70938   4.757   5.343   5.861
  1038G11  C09870939   4.747   5.487   5.891
  1038G11  C08R70940   4.835   5.599   5.850
  1038G11  C08Q70941   4.789   5.725   5.886
  1038G11  C08P70942   4.801   5.857   5.828
  1038G11  C08Y70943   4.689   5.945   5.840
  1038G11  C09770944   4.565   5.888   5.864
  1038G11  C09670945   4.470   5.948   5.781
  1038G11  C09070946   4.526   6.072   5.739
  1038G11  C09570947   4.477   6.154   5.640
  1038G11  C09470948   4.541   6.273   5.593
  1038G11  C08J70949   4.671   6.323   5.623
  1038G11  C08I70950   4.701   6.410   5.516
  1038G11  C08H70951   4.843   6.418   5.496
  1038G11  C08G70952   4.894   6.305   5.576
  1038G11  C08F70953   5.022   6.241   5.602
  1038G11  C08E70954   5.146   6.306   5.565
  1038G11  C05970955   5.161   6.447   5.555
  1038G11  C05870956   5.290   6.506   5.550
  1038G11  C05770957   5.319   6.641   5.530
  1038G11  C05670958   5.207   6.726   5.515
  1038G11  C05570959   5.078   6.680   5.534
  1038G11  C05470960   4.996   6.764   5.457
  1038G11  C05370961   5.079   6.860   5.383
  1038G11  C05270962   5.044   6.938   5.266
  1038G11  C05170963   4.912   6.926   5.206
  1038G11  C05U70964   4.798   6.838   5.241
  1038G11  C05T70965   4.785   6.724   5.332
  1038G11  C06K70966   4.643   6.710   5.344
  1038G11  H00J70967   4.595   6.654   5.423
  1038G11  C06L70968   4.573   6.786   5.244
  1038G11  H00I70969   4.465   6.792   5.237
  1038G11  C05V70970   4.673   6.856   5.174
  1038G11  C06J70971   4.655   6.935   5.068
  1038G11  H00K70972   4.554   6.941   5.031
  1038G11  C05X70973   4.759   7.009   5.019
  1038G11  C06I70974   4.747   7.081   4.900
  1038G11  H00L70975   4.649   7.089   4.856
  1038G11  C04Z70976   4.845   7.162   4.841
  1038G11  C06H70977   4.822   7.234   4.726
  1038G11  H00H70978   4.729   7.230   4.671
  1038G11  C04Y70979   4.927   7.321   4.680
  1038G11  C06G70980   4.899   7.405   4.565
  1038G11  O00970981   4.795   7.405   4.503
  1038G11  O00870982   5.001   7.488   4.521
  1038G11  C04P70983   5.127   7.482   4.572
  1038G11  C04J70984   5.244   7.550   4.522
  1038G11  C04Q70985   5.247   7.636   4.413
  1038G11  H00E70986   5.158   7.652   4.354
  1038G11  C04M70987   5.358   7.711   4.368
  1038G11  C04R70988   5.360   7.801   4.260
  1038G11  H00F70989   5.260   7.810   4.220
  1038G11  C04S70990   5.467   7.874   4.238
  1038G11  H00G70991   5.462   7.951   4.162
  1038G11  O00770992   5.577   7.876   4.319
  1038G11  C03V70993   5.588   7.769   4.408
  1038G11  C03U70994   5.712   7.726   4.461
  1038G11  O00670995   5.819   7.769   4.400
  1038G11  C03F70996   5.944   7.736   4.446
  1038G11  C03E70997   5.961   7.635   4.543
  1038G11  C03D70998   5.849   7.584   4.609
  1038G11  C03C70999   5.860   7.484   4.706
  1038G11  C03B71000   5.993   7.440   4.727
  1038G11  C03A71001   6.007   7.356   4.842
  1038G11  C03971002   5.899   7.304   4.917
  1038G11  C03871003   5.968   7.213   5.010
  1038G11  C03771004   6.107   7.228   4.981
  1038G11  C03671005   6.196   7.167   5.058
  1038G11  C02R71006   6.333   7.156   5.031
  1038G11  C03571007   6.372   7.051   5.119
  1038G11  C03R71008   6.266   6.995   5.193
  1038G11  C03S71009   6.251   6.855   5.222
  1038G11  C04971010   6.122   6.812   5.245
  1038G11  C04871011   6.013   6.906   5.226
  1038G11  C03P71012   6.020   7.033   5.165
  1038G11  C04771013   5.888   6.850   5.265
  1038G11  C04671014   5.771   6.920   5.281
  1038G11  C04571015   5.725   7.039   5.229
  1038G11  C03T71016   5.792   7.123   5.141
  1038G11  C04471017   5.692   7.217   5.101
  1038G11  C04371018   5.573   7.203   5.185
  1038G11  C04271019   5.455   7.222   5.104
  1038G11  C04171020   5.517   7.292   4.985
  1038G11  C04071021   5.446   7.334   4.876
  1038G11  C03Z71022   5.495   7.428   4.774
  1038G11  C04H71023   5.380   7.451   4.695
  1038G11  C04G71024   5.271   7.383   4.744
  1038G11  C03N71025   5.615   7.478   4.723
  1038G11  C03Y71026   5.605   7.569   4.615
  1038G11  C03X71027   5.486   7.601   4.550
  1038G11  C04F71028   5.311   7.314   4.855
  1038G11  C04E71029   5.199   7.247   4.923
  1038G11  C04O71030   5.068   7.245   4.863
  1038G11  C04D71031   5.208   7.185   5.048
  1038G11  C04V71032   5.106   7.099   5.094
  1038G11  C04W71033   4.979   7.088   5.034
  1038G11  C04C71034   5.324   7.167   5.135
  1038G11  C04L71035   5.282   7.063   5.231
  1038G11  C04U71036   5.367   7.008   5.334
  1038G11  C05Q71037   5.329   6.898   5.413
  1038G11  C05P71038   5.445   6.823   5.440
  1038G11  C04T71039   5.552   6.883   5.377
  1038G11  C04B71040   5.504   7.002   5.318
  1038G11  C03M71041   5.664   7.289   4.980
  1038G11  C04A71042   5.594   7.078   5.248
  1038G11  C05H71043   5.685   6.835   5.353
  1038G11  C05G71044   5.744   6.709   5.361
  1038G11  C05F71045   5.690   6.605   5.438
  1038G11  C05E71046   5.738   6.468   5.428
  1038G11  C05L71047   5.855   6.403   5.385
  1038G11  C05K71048   5.969   6.473   5.332
  1038G11  C05J71049   5.987   6.617   5.308
  1038G11  C06671050   6.075   6.390   5.294
  1038G11  C06571051   6.067   6.247   5.302
  1038G11  C06471052   5.953   6.188   5.357
  1038G11  C06N71053   6.176   6.174   5.266
  1038G11  C06971054   6.294   6.235   5.216
  1038G11  C06P71055   6.405   6.156   5.183
  1038G11  C06R71056   6.526   6.208   5.142
  1038G11  C06B71057   6.544   6.348   5.139
  1038G11  C06S71058   6.665   6.401   5.096
  1038G11  C02G71059   6.680   6.540   5.094
  1038G11  C02F71060   6.799   6.590   5.045
  1038G11  C02771061   6.899   6.508   4.999
  1038G11  C02671062   7.010   6.565   4.934
  1038G11  C00E71063   7.113   6.481   4.892
  1038G11  C00D71064   7.216   6.535   4.821
  1038G11  C00C71065   7.324   6.453   4.793
  1038G11  C00B71066   7.321   6.315   4.803
  1038G11  C01571067   7.211   6.262   4.872
  1038G11  C07F71068   7.200   6.124   4.888
  1038G11  C07E71069   7.085   6.070   4.939
  1038G11  C06W71070   6.983   6.156   4.985
  1038G11  C06V71071   6.995   6.291   4.980
  1038G11  C06X71072   6.862   6.098   5.031
  1038G11  C07B71073   6.857   5.963   5.039
  1038G11  C07C71074   6.965   5.878   5.008
  1038G11  C0FU71075   6.958   5.741   5.034
  1038G11  C0F771076   7.069   5.660   5.006
  1038G11  C0F671077   7.055   5.525   5.026
  1038G11  C0F871078   7.167   5.444   5.004
  1038G11  C0F971079   7.161   5.310   5.033
  1038G11  C0FA71080   7.272   5.232   5.012
  1038G11  C0FZ71081   7.387   5.295   4.967
  1038G11  C0G071082   7.507   5.219   4.956
  1038G11  C0GD71083   7.495   5.076   4.980
  1038G11  C0FC71084   7.378   5.017   5.011
  1038G11  C0GH71085   7.366   4.872   5.020
  1038G11  C0EY71086   7.246   4.813   5.060
  1038G11  C0EX71087   7.240   4.675   5.078
  1038G11  C0EW71088   7.122   4.618   5.118
  1038G11  C0FR71089   7.109   4.473   5.133
  1038G11  H01D71090   7.009   4.435   5.148
  1038G11  C0FS71091   7.217   4.389   5.089
  1038G11  H01C71092   7.197   4.284   5.078
  1038G11  C0GJ71093   7.333   4.450   5.052
  1038G11  H01N71094   7.417   4.385   5.034
  1038G11  C0EV71095   7.018   4.701   5.145
  1038G11  C0FT71096   6.906   4.661   5.226
  1038G11  H01E71097   6.907   4.563   5.272
  1038G11  C0EU71098   7.023   4.840   5.125
  1038G11  C0ET71099   6.915   4.926   5.157
  1038G11  C0EI71100   6.912   5.063   5.144
  1038G11  C0F171101   7.034   5.120   5.097
  1038G11  C0F071102   7.146   5.037   5.066
  1038G11  C0EH71103   6.793   5.138   5.175
  1038G11  C0EG71104   6.671   5.074   5.226
  1038G11  C0EJ71105   6.806   5.276   5.160
  1038G11  C0F371106   6.930   5.334   5.104
  1038G11  C0EK71107   6.697   5.360   5.191
  1038G11  C0EL71108   6.570   5.301   5.231
  1038G11  C0EM71109   6.470   5.404   5.257
  1038G11  C0EN71110   6.498   5.538   5.240
  1038G11  C07I71111   6.389   5.619   5.261
  1038G11  C07471112   6.387   5.752   5.232
  1038G11  C07371113   6.271   5.818   5.255
  1038G11  C07271114   6.279   5.958   5.240
  1038G11  C07571115   6.506   5.801   5.179
  1038G11  C07671116   6.615   5.718   5.154
  1038G11  C07871117   6.733   5.770   5.105
  1038G11  C07G71118   6.508   5.934   5.164
  1038G11  C07071119   6.628   5.990   5.120
  1038G11  C07Z71120   6.281   5.539   5.297
  1038G11  C07771121   6.615   5.584   5.178
  1038G11  C0EO71122   6.714   5.496   5.164
  1038G11  C0F471123   6.831   5.550   5.111
  1038G11  C0EQ71124   6.797   4.875   5.202
  1038G11  C0FQ71125   7.347   4.591   5.048
  1038G11  C0GI71126   7.464   4.654   5.006
  1038G11  H01L71127   7.548   4.593   4.976
  1038G11  C0EZ71128   7.137   4.897   5.078
  1038G11  C0GG71129   7.476   4.792   5.004
  1038G11  C0GF71130   7.593   4.856   4.967
  1038G11  H01M71131   7.688   4.807   4.957
  1038G11  C0GE71132   7.608   4.989   4.968
  1038G11  H01K71133   7.704   5.035   4.954
  1038G11  O00J71134   7.630   5.271   4.922
  1038G11  C0GA71135   7.632   5.401   4.887
  1038G11  C0G971136   7.757   5.465   4.868
  1038G11  H01H71137   7.848   5.408   4.882
  1038G11  C0G871138   7.770   5.599   4.836
  1038G11  C0G771139   7.897   5.674   4.805
  1038G11  H01I71140   7.988   5.616   4.800
  1038G11  O00I71141   7.903   5.806   4.772
  1038G11  C0G671142   7.784   5.879   4.777
  1038G11  H01J71143   7.790   5.987   4.775
  1038G11  C02D71144   7.657   5.815   4.802
  1038G11  C02C71145   7.538   5.892   4.806
  1038G11  C01771146   7.526   6.021   4.746
  1038G11  C01671147   7.419   6.102   4.783
  1038G11  O00171148   7.616   6.069   4.649
  1038G11  C01871149   7.598   6.196   4.598
  1038G11  C00971150   7.520   6.288   4.660
  1038G11  C00871151   7.524   6.432   4.642
  1038G11  C00771152   7.570   6.521   4.535
  1038G11  C00671153   7.614   6.476   4.411
  1038G11  C00571154   7.650   6.559   4.301
  1038G11  C00471155   7.637   6.698   4.280
  1038G11  C00371156   7.540   6.785   4.339
  1038G11  C00271157   7.509   6.905   4.262
  1038G11  C00P71158   7.398   6.986   4.298
  1038G11  C00O71159   7.357   7.093   4.221
  1038G11  C00N71160   7.244   7.170   4.258
  1038G11  C01071161   7.197   7.269   4.176
  1038G11  C01171162   7.078   7.340   4.201
  1038G11  C01Q71163   7.019   7.421   4.101
  1038G11  C01U71164   7.084   7.446   3.980
  1038G11  C01271165   7.203   7.374   3.960
  1038G11  H00071166   7.254   7.389   3.866
  1038G11  C01V71167   7.017   7.523   3.884
  1038G11  H00771168   7.063   7.534   3.787
  1038G11  O00571169   6.888   7.573   3.905
  1038G11  C01W71170   6.827   7.540   4.015
  1038G11  C03171171   6.691   7.565   4.015
  1038G11  C03271172   6.622   7.513   4.126
  1038G11  H00A71173   6.514   7.515   4.133
  1038G11  C03371174   6.681   7.453   4.237
  1038G11  H00B71175   6.620   7.412   4.316
  1038G11  C01O71176   6.824   7.447   4.240
  1038G11  C01N71177   6.889   7.383   4.342
  1038G11  C01M71178   6.839   7.375   4.482
  1038G11  C01L71179   6.711   7.396   4.560
  1038G11  C01K71180   6.718   7.322   4.678
  1038G11  C01Y71181   6.619   7.281   4.763
  1038G11  C02I71182   6.492   7.339   4.745
  1038G11  C02N71183   6.390   7.290   4.826
  1038G11  C02M71184   6.262   7.346   4.795
  1038G11  C02L71185   6.239   7.443   4.698
  1038G11  C02K71186   6.351   7.499   4.633
  1038G11  C02U71187   6.335   7.608   4.544
  1038G11  C02V71188   6.205   7.644   4.508
  1038G11  C03H71189   6.186   7.739   4.400
  1038G11  H00C71190   6.268   7.771   4.337
  1038G11  C02W71191   6.446   7.665   4.484
  1038G11  C02X71192   6.564   7.594   4.485
  1038G11  C02Y71193   6.657   7.688   4.439
  1038G11  H00871194   6.764   7.678   4.427
  1038G11  C02Z71195   6.582   7.817   4.402
  1038G11  O00471196   6.618   7.924   4.353
  1038G11  O00371197   6.456   7.799   4.435
  1038G11  C02J71198   6.478   7.436   4.644
  1038G11  C01Z71199   6.649   7.182   4.852
  1038G11  C02071200   6.771   7.113   4.847
  1038G11  C01I71201   6.870   7.152   4.762
  1038G11  C01H71202   6.970   7.070   4.718
  1038G11  C00K71203   7.043   7.094   4.608
  1038G11  C01S71204   7.013   7.195   4.526
  1038G11  C01471205   7.066   7.217   4.406
  1038G11  C00J71206   7.151   7.018   4.574
  1038G11  C00I71207   7.183   6.907   4.649
  1038G11  C00H71208   7.092   6.867   4.744
  1038G11  C00G71209   7.103   6.746   4.810
  1038G11  C00S71210   7.290   6.830   4.614
  1038G11  C00T71211   7.306   6.712   4.690
  1038G11  C00U71212   7.418   6.633   4.661
  1038G11  C00R71213   7.366   6.855   4.503
  1038G11  C00L71214   7.218   7.040   4.453
  1038G11  C02871215   6.986   6.950   4.782
  1038G11  C02371216   6.899   6.908   4.881
  1038G11  C02471217   6.900   6.779   4.933
  1038G11  C02171218   6.788   6.992   4.910
  1038G11  C02271219   6.686   6.939   4.985
  1038G11  C02H71220   6.691   6.808   5.039
  1038G11  C03071221   6.581   6.755   5.114
  1038G11  C03471222   6.478   6.835   5.139
  1038G11  C02P71223   6.571   7.017   5.003
  1038G11  C02B71224   6.547   7.137   4.932
  1038G11  C01J71225   6.844   7.266   4.681
  1038G11  C01X71226   6.586   7.471   4.553
  1038G11  C01T71227   6.912   7.288   4.564
  1038G11  H00971228   6.641   7.612   3.932
  1038G11  C01P71229   6.889   7.467   4.120
  1038G11  C01R71230   7.011   7.314   4.320
  1038G11  C00Z71231   7.265   7.291   4.055
  1038G11  O00071232   7.376   7.218   4.018
  1038G11  C00M71233   7.177   7.144   4.372
  1038G11  C00Y71234   7.419   7.116   4.098
  1038G11  C01371235   7.533   7.043   4.061
  1038G11  H00171236   7.580   7.061   3.965
  1038G11  C00Q71237   7.329   6.959   4.419
  1038G11  C00171238   7.585   6.941   4.145
  1038G11  C00071239   7.697   6.867   4.119
  1038G11  H00671240   7.756   6.902   4.036
  1038G11  C00W71241   7.463   6.763   4.457
  1038G11  C01G71242   7.725   6.748   4.175
  1038G11  H00571243   7.810   6.695   4.135
  1038G11  C01C71244   7.723   6.470   4.203
  1038G11  H00271245   7.769   6.497   4.109
  1038G11  C01B71246   7.735   6.341   4.270
  1038G11  C01D71247   7.814   6.230   4.230
  1038G11  H00371248   7.872   6.222   4.138
  1038G11  C01E71249   7.811   6.122   4.313
  1038G11  H00471250   7.873   6.038   4.287
  1038G11  O00271251   7.737   6.109   4.431
  1038G11  C01A71252   7.666   6.347   4.393
  1038G11  C00V71253   7.497   6.649   4.549
  1038G11  C01971254   7.667   6.222   4.479
  1038G11  C02E71255   7.424   5.836   4.865
  1038G11  C0FX71256   7.419   5.699   4.900
  1038G11  C0FW71257   7.297   5.647   4.951
  1038G11  C0GB71258   7.531   5.624   4.876
  1038G11  C0G371259   7.310   5.912   4.883
  1038G11  C07H71260   7.194   5.857   4.937
  1038G11  C0GC71261   7.653   5.680   4.837
  1038G11  C0G271262   7.517   5.488   4.902
  1038G11  C0G171263   7.395   5.430   4.944
  1038G11  C0FB71264   7.268   5.094   5.036
  1038G11  C0F271265   7.043   5.254   5.082
  1038G11  C0FY71266   7.286   5.504   4.966
  1038G11  C0F571267   6.938   5.471   5.080
  1038G11  C0FV71268   7.188   5.722   4.969
  1038G11  C07971269   6.841   5.690   5.084
  1038G11  C07A71270   6.741   5.907   5.088
  1038G11  C06Y71271   6.753   6.183   5.066
  1038G11  C07D71272   7.081   5.935   4.960
  1038G11  C01F71273   7.313   6.047   4.854
  1038G11  C00A71274   7.423   6.240   4.751
  1038G11  C00X71275   7.431   6.508   4.718
  1038G11  C00F71276   7.212   6.667   4.781
  1038G11  C02971277   7.108   6.345   4.920
  1038G11  C02571278   7.004   6.700   4.897
  1038G11  C06U71279   6.887   6.373   5.014
  1038G11  C02A71280   6.801   6.727   5.008
  1038G11  C05Y71281   6.574   6.619   5.136
  1038G11  C05Z71282   6.450   6.564   5.172
  1038G11  C06071283   6.341   6.645   5.210
  1038G11  C06271284   6.213   6.590   5.245
  1038G11  C06T71285   6.765   6.318   5.058
  1038G11  C06A71286   6.431   6.426   5.173
  1038G11  C06Z71287   6.633   6.126   5.106
  1038G11  C06Q71288   6.399   6.015   5.201
  1038G11  C06871289   6.303   6.372   5.214
  1038G11  C06771290   6.195   6.448   5.255
  1038G11  C06371291   5.846   6.260   5.398
  1038G11  C06C71292   5.727   6.189   5.424
  1038G11  C06D71293   5.619   6.259   5.468
  1038G11  C06E71294   5.492   6.211   5.496
  1038G11  C07Q71295   5.484   6.073   5.490
  1038G11  C07P71296   5.593   5.993   5.453
  1038G11  C07T71297   5.588   5.855   5.470
  1038G11  C07U71298   5.702   5.780   5.451
  1038G11  C07V71299   5.698   5.643   5.468
  1038G11  C08471300   5.582   5.588   5.516
  1038G11  C08C71301   5.467   5.664   5.533
  1038G11  C08B71302   5.355   5.605   5.575
  1038G11  C08A71303   5.244   5.684   5.603
  1038G11  C08971304   5.239   5.817   5.594
  1038G11  C08871305   5.132   5.894   5.641
  1038G11  C08771306   5.133   6.027   5.615
  1038G11  C08671307   5.248   6.085   5.560
  1038G11  C08X71308   5.018   5.836   5.697
  1038G11  C08T71309   5.019   5.693   5.712
  1038G11  C08D71310   5.356   5.879   5.540
  1038G11  C08U71311   5.133   5.627   5.663
  1038G11  C08V71312   5.130   5.490   5.687
  1038G11  C0CY71313   5.233   5.408   5.649
  1038G11  C0CX71314   5.224   5.277   5.684
  1038G11  C0CW71315   5.333   5.200   5.661
  1038G11  C0CV71316   5.448   5.252   5.602
  1038G11  C0D471317   5.453   5.388   5.582
  1038G11  C0CU71318   5.560   5.177   5.583
  1038G11  C0CT71319   5.559   5.037   5.610
  1038G11  C0CS71320   5.438   4.985   5.661
  1038G11  C0D671321   5.666   5.243   5.541
  1038G11  C0EC71322   5.680   5.379   5.518
  1038G11  C07X71323   5.800   5.434   5.467
  1038G11  C0DL71324   5.775   5.161   5.502
  1038G11  C0DK71325   5.887   5.217   5.453
  1038G11  C0DN71326   5.972   5.117   5.422
  1038G11  C0D871327   5.779   5.023   5.511
  1038G11  C08W71328   5.009   5.458   5.746
  1038G11  C0CQ71329   4.998   5.318   5.787
  1038G11  C09371330   5.346   5.468   5.603
  1038G11  C09271331   5.570   5.453   5.538
  1038G11  C08571332   5.473   5.801   5.515
  1038G11  C07S71333   5.362   6.013   5.529
  1038G11  C06F71334   5.383   6.281   5.529
  1038G11  C07O71335   5.717   6.054   5.422
  1038G11  C07N71336   5.828   5.978   5.401
  1038G11  C05D71337   5.631   6.395   5.484
  1038G11  C05C71338   5.518   6.473   5.506
  1038G11  C05N71339   5.550   6.604   5.486
  1038G11  C05M71340   5.876   6.713   5.311
  1038G11  C05I71341   6.106   6.675   5.271
  1038G11  C06171342   6.360   6.782   5.198
  1038G11  C02Q71343   6.481   6.967   5.084
  1038G11  C02O71344   6.425   7.204   4.932
  1038G11  C03Q71345   6.157   7.072   5.152
  1038G11  C03O71346   5.923   7.116   5.108
  1038G11  C03L71347   5.764   7.336   4.884
  1038G11  C02S71348   6.136   7.307   4.869
  1038G11  C02T71349   6.108   7.494   4.668
  1038G11  C03K71350   5.743   7.432   4.775
  1038G11  C03I71351   6.092   7.591   4.571
  1038G11  C03G71352   6.053   7.787   4.374
  1038G11  H00D71353   6.033   7.858   4.296
  1038G11  C03J71354   5.723   7.630   4.567
  1038G11  C03W71355   5.474   7.694   4.445
  1038G11  C04I71356   5.367   7.537   4.581
  1038G11  C04K71357   5.144   7.406   4.691
  1038G11  C04N71358   5.049   7.324   4.747
  1038G11  C04X71359   4.962   7.171   4.918
  1038G11  C05071360   4.883   7.005   5.091
  1038G11  C05W71361   5.142   7.022   5.209
  1038G11  C05S71362   4.896   6.673   5.413
  1038G11  C05R71363   5.209   6.838   5.435
  1038G11  C05O71364   5.444   6.695   5.490
  1038G11  C05B71365   5.393   6.416   5.535
  1038G11  C05A71366   5.056   6.543   5.524
  1038G11  C07R71367   5.258   6.226   5.545
  1038G11  C08N71368   5.021   6.105   5.641
  1038G11  C08M71369   4.902   6.042   5.699
  1038G11  C08L71370   4.785   6.120   5.707
  1038G11  C09171371   4.919   6.539   5.471
  1038G11  C09K71372   4.611   6.386   5.403
  1038G11  H00M71373   4.638   6.404   5.300
  1038G11  C08K71374   4.784   6.248   5.647
  1038G11  C09J71375   4.503   6.311   5.461
  1038G11  C09I71376   4.408   6.208   5.428
  1038G11  C09L71377   4.342   6.189   5.301
  1038G11  H00N71378   4.361   6.251   5.215
  1038G11  C09Q71379   4.246   6.096   5.306
  1038G11  H00O71380   4.184   6.082   5.219
  1038G11  O00B71381   4.205   6.023   5.421
  1038G11  C09G71382   4.291   6.014   5.528
  1038G11  C09F71383   4.272   5.917   5.625
  1038G11  O00A71384   4.159   5.846   5.592
  1038G11  C09P71385   4.128   5.749   5.683
  1038G11  H00P71386   4.036   5.754   5.739
  1038G11  C09O71387   4.231   5.663   5.735
  1038G11  C09D71388   4.345   5.741   5.778
  1038G11  C09C71389   4.454   5.687   5.855
  1038G11  C09N71390   4.501   5.551   5.878
  1038G11  C09T71391   4.449   5.435   5.817
  1038G11  C09S71392   4.316   5.426   5.768
  1038G11  C0CP71393   4.299   5.285   5.748
  1038G11  C0CN71394   4.409   5.211   5.787
  1038G11  C0CO71395   4.398   5.073   5.772
  1038G11  H01471396   4.471   5.006   5.816
  1038G11  C0CZ71397   4.279   5.022   5.715
  1038G11  H01571398   4.276   4.916   5.694
  1038G11  C0D071399   4.164   5.100   5.678
  1038G11  C0G571400   4.037   5.055   5.626
  1038G11  H01F71401   4.035   4.947   5.625
  1038G11  C0G471402   3.938   5.144   5.601
  1038G11  H01G71403   3.841   5.106   5.571
  1038G11  O00H71404   3.956   5.280   5.606
  1038G11  C0D271405   4.067   5.327   5.659
  1038G11  C09V71406   4.091   5.468   5.679
  1038G11  H00Q71407   4.012   5.533   5.643
  1038G11  C0D171408   4.174   5.242   5.691
  1038G11  C09R71409   4.216   5.520   5.733
  1038G11  C09H71410   4.392   6.112   5.533
  1038G11  C09E71411   4.357   5.880   5.734
  1038G11  C09B71412   4.555   5.761   5.905
  1038G11  C08Z71413   4.671   6.054   5.761
  1038G11  C08O71414   4.903   5.907   5.740
  1038G11  C09A71415   4.666   5.696   5.958
  1038G11  C08S71416   4.937   5.581   5.762
  1038G11  C09971417   4.632   5.557   5.941
  1038G11  C09U71418   4.508   5.307   5.836
  1038G11  C0BO71419   4.767   4.940   5.973
  1038G11  C0CL71420   4.879   5.270   5.842
  1038G11  C0D371421   5.111   5.234   5.753
  1038G11  C0D571422   5.328   5.068   5.693
  1038G11  C0BR71423   4.987   4.914   5.873
  1038G11  C0BQ71424   4.873   4.860   5.940
  1038G11  C0BL71425   4.656   4.756   6.074
  1038G11  C0AF71426   4.633   4.485   6.110
  1038G11  C0BH71427   4.973   4.509   5.975
  1038G11  C0BG71428   5.085   4.428   5.958
  1038G11  C0BD71429   4.968   4.245   6.051
  1038G11  C0AG71430   4.625   4.350   6.126
  1038G11  C0AI71431   4.517   4.176   6.254
  1038G11  C0AV71432   4.554   3.962   6.412
  1038G11  C0BB71433   4.838   3.924   6.179
  1038G11  O00C71434   4.714   3.781   6.477
  1038G11  C0BC71435   4.948   3.849   6.204
  1038G11  C0B971436   4.965   4.117   6.105
  1038G11  O00E71437   5.322   4.036   6.079
  1038G11  C0CA71438   5.440   4.071   6.021
  1038G11  O00F71439   5.533   3.991   6.035
  1038G11  C0BF71440   5.087   4.302   6.013
  1038G11  C0C571441   5.437   4.199   5.952
  1038G11  C0C471442   5.549   4.251   5.885
  1038G11  H01171443   5.634   4.185   5.890
  1038G11  C0C871444   5.196   4.483   5.902
  1038G11  C0C271445   5.537   4.375   5.822
  1038G11  C0C371446   5.641   4.429   5.740
  1038G11  C0DY71447   5.762   4.366   5.711
  1038G11  H01671448   5.809   4.271   5.730
  1038G11  C0DX71449   5.839   4.467   5.643
  1038G11  C0DW71450   5.960   4.424   5.576
  1038G11  C0BY71451   5.309   4.665   5.788
  1038G11  C0DB71452   5.648   4.561   5.694
  1038G11  C0CC71453   5.434   4.848   5.691
  1038G11  C0D771454   5.667   4.954   5.580
  1038G11  C0DZ71455   5.768   4.594   5.629
  1038G11  C0DM71456   5.910   4.992   5.455
  1038G11  C0DQ71457   6.045   4.661   5.510
  1038G11  C0DV71458   6.049   4.521   5.522
  1038G11  C0E071459   6.026   4.292   5.577
  1038G11  C0FO71460   6.382   4.249   5.574
  1038G11  C0E371461   6.063   4.195   5.680
  1038G11  H01771462   6.011   4.177   5.773
  1038G11  C0GV71463   6.424   4.160   5.678
  1038G11  C0ES71464   6.462   4.362   5.548
  1038G11  C0GQ71465   6.766   4.251   5.738
  1038G11  C0FJ71466   6.906   4.562   5.607
  1038G11  C0ED71467   6.630   4.582   5.511
  1038G11  C0ER71468   6.803   4.747   5.257
  1038G11  C0EP71469   6.683   4.937   5.251
  1038G11  C0E671470   6.422   4.717   5.439
  1038G11  C0DE71471   6.237   4.958   5.367
  1038G11  C0EA71472   6.557   5.155   5.245
  1038G11  C0DF71473   6.187   5.071   5.294
  1038G11  C08071474   6.330   5.404   5.290
  1038G11  C0DO71475   6.088   5.153   5.354
  1038G11  C0DJ71476   5.907   5.355   5.439
  1038G11  C07K71477   6.154   5.611   5.324
  1038G11  C07W71478   5.815   5.569   5.448
  1038G11  C08371479   5.820   5.840   5.405
  1038G11  C07J71480   6.160   5.754   5.308
  1038G11  C06O71481   6.168   6.035   5.275
  1038G11  C06M71482   5.947   6.045   5.357
  1048G11  C07171483   9.623   9.508   6.313
  1048G11  C07L71484   9.649   9.446   6.436
  1048G11  C07M71485   9.780   9.442   6.483
  1048G11  C07Y71486   9.814   9.382   6.609
  1048G11  C08171487   9.714   9.325   6.691
  1048G11  C08271488   9.756   9.269   6.812
  1048G11  C0DI71489   9.673   9.211   6.925
  1048G11  C0DH71490   9.539   9.177   6.938
  1048G11  C0DG71491   9.499   9.125   7.068
  1048G11  C0E971492   9.414   9.017   7.105
  1048G11  C0E871493   9.482   8.964   7.227
  1048G11  C0E771494   9.434   8.889   7.343
  1048G11  C0EB71495   9.297   8.835   7.336
  1048G11  C0EF71496   9.215   8.788   7.447
  1048G11  C0EE71497   9.207   8.826   7.584
  1048G11  C0FD71498   9.078   8.853   7.646
  1048G11  C0FE71499   8.947   8.855   7.578
  1048G11  H01B71500   8.933   8.830   7.474
  1048G11  C0FF71501   8.830   8.885   7.641
  1048G11  H01A71502   8.736   8.896   7.588
  1048G11  C0FG71503   8.837   8.926   7.773
  1048G11  H01871504   8.750   8.957   7.829
  1048G11  C0FH71505   8.961   8.931   7.842
  1048G11  C0FI71506   8.978   8.975   7.976
  1048G11  H01971507   8.889   9.018   8.020
  1048G11  O00K71508   9.080   8.958   8.054
  1048G11  C0FL71509   9.199   8.928   7.995
  1048G11  C0FK71510   9.201   8.890   7.857
  1048G11  C0FM71511   9.321   8.859   7.793
  1048G11  C0FN71512   9.434   8.841   7.878
  1048G11  C0FP71513   9.426   8.892   8.013
  1048G11  C0GO71514   9.544   8.902   8.087
  1048G11  C0GN71515   9.551   8.981   8.201
  1048G11  C0GR71516   9.428   9.021   8.256
  1048G11  C0GS71517   9.433   9.095   8.375
  1048G11  H01Q71518   9.344   9.136   8.420
  1048G11  C0GT71519   9.551   9.127   8.440
  1048G11  H01O71520   9.556   9.172   8.539
  1048G11  C0GU71521   9.674   9.081   8.383
  1048G11  H01P71522   9.766   9.092   8.438
  1048G11  O00L71523   9.309   8.974   8.201
  1048G11  C0GM71524   9.675   9.004   8.263
  1048G11  C0GL71525   9.792   8.961   8.188
  1048G11  H01R71526   9.891   8.990   8.222
  1048G11  C0GK71527   9.781   8.880   8.077
  1048G11  C0GP71528   9.872   8.823   7.986
  1048G11  C0E271529   9.796   8.737   7.898
  1048G11  C0E171530   9.867   8.723   7.777
  1048G11  C0DU71531   9.812   8.775   7.653
  1048G11  C0DT71532   9.684   8.784   7.605
  1048G11  C0E471533   9.571   8.790   7.686
  1048G11  C0E571534   9.464   8.818   7.604
  1048G11  C0DS71535   9.652   8.838   7.478
  1048G11  C0DR71536   9.758   8.882   7.397
  1048G11  C0DD71537   9.752   8.953   7.280
  1048G11  C0DC71538   9.893   8.996   7.261
  1048G11  C0DP71539   9.983   8.926   7.351
  1048G11  C0DA71540  10.130   8.919   7.349
  1048G11  C0D971541  10.229   8.952   7.246
  1048G11  C0CR71542  10.369   8.904   7.244
  1048G11  C0C071543  10.420   8.832   7.351
  1048G11  C0BZ71544  10.543   8.776   7.365
  1048G11  C0C171545  10.572   8.695   7.481
  1048G11  C0C771546  10.693   8.630   7.486
  1048G11  C0C671547  10.730   8.548   7.593
  1048G11  C0C971548  10.847   8.481   7.593
  1048G11  C0B871549  10.878   8.393   7.700
  1048G11  C0B771550  10.990   8.313   7.693
  1048G11  C0B671551  11.051   8.224   7.788
  1048G11  C0B571552  11.062   8.259   7.925
  1048G11  H00Z71553  11.000   8.333   7.976
  1048G11  C0B471554  11.184   8.203   7.979
  1048G11  H01071555  11.228   8.223   8.075
  1048G11  C0B371556  11.244   8.121   7.869
  1048G11  C0AP71557  11.381   8.115   7.820
  1048G11  C0AQ71558  11.363   8.127   7.683
  1048G11  C0AR71559  11.467   8.176   7.603
  1048G11  C0AS71560  11.420   8.245   7.498
  1048G11  C0AT71561  11.292   8.300   7.480
  1048G11  C0BA71562  11.197   8.259   7.565
  1048G11  C0AU71563  11.269   8.394   7.384
  1048G11  C0BE71564  11.150   8.463   7.391
  1048G11  C0BI71565  11.129   8.560   7.297
  1048G11  C0BJ71566  11.235   8.600   7.209
  1048G11  C0BK71567  11.208   8.696   7.116
  1048G11  C0BW71568  11.079   8.742   7.101
  1048G11  C0BV71569  10.976   8.708   7.190
  1048G11  C0BU71570  10.853   8.764   7.174
  1048G11  C0BX71571  10.759   8.738   7.275
  1048G11  C0BT71572  10.822   8.841   7.063
  1048G11  C0CD71573  10.696   8.898   7.050
  1048G11  C0CB71574  10.600   8.870   7.149
  1048G11  C0CE71575  10.662   8.972   6.941
  1048G11  C0CK71576  10.759   8.998   6.846
  1048G11  C0BS71577  10.891   8.952   6.860
  1048G11  C0CJ71578  10.991   8.980   6.761
  1048G11  C0BP71579  11.121   8.931   6.776
  1048G11  C0CI71580  11.229   8.969   6.690
  1048G11  C0CH71581  11.360   8.950   6.741
  1048G11  H01271582  11.437   8.993   6.679
  1048G11  C0BN71583  11.391   8.875   6.854
  1048G11  C0CG71584  11.524   8.832   6.879
  1048G11  C0CF71585  11.637   8.888   6.807
  1048G11  H01371586  11.622   8.979   6.750
  1048G11  O00G71587  11.765   8.844   6.810
  1048G11  C0AA71588  11.780   8.740   6.901
  1048G11  C0A971589  11.909   8.690   6.916
  1048G11  H00U71590  11.982   8.735   6.850
  1048G11  C0A871591  11.944   8.615   7.026
  1048G11  H00V71592  12.050   8.596   7.035
  1048G11  C0A771593  11.852   8.568   7.123
  1048G11  C0A671594  11.713   8.604   7.099
  1048G11  C0A571595  11.602   8.554   7.172
  1048G11  C0A471596  11.618   8.448   7.272
  1048G11  C0A371597  11.719   8.385   7.348
  1048G11  C0A271598  11.852   8.414   7.340
  1048G11  C0A171599  11.948   8.336   7.411
  1048G11  C0A071600  11.953   8.265   7.536
  1048G11  C09Z71601  12.080   8.219   7.581
  1048G11  C09Y71602  12.096   8.162   7.708
  1048G11  H00Y71603  12.192   8.127   7.745
  1048G11  C09X71604  11.981   8.148   7.792
  1048G11  C09W71605  12.010   8.098   7.922
  1048G11  H00R71606  12.113   8.078   7.947
  1048G11  C0AX71607  11.910   8.060   8.009
  1048G11  H00S71608  11.940   8.019   8.104
  1048G11  C0AW71609  11.780   8.083   7.964
  1048G11  H00T71610  11.706   8.026   8.017
  1048G11  C0AN71611  11.749   8.142   7.837
  1048G11  C0AO71612  11.615   8.151   7.789
  1048G11  C0AM71613  11.853   8.184   7.752
  1048G11  C0B271614  12.198   8.241   7.508
  1048G11  O00D71615  12.309   8.214   7.551
  1048G11  C0B171616  12.190   8.290   7.375
  1048G11  H00W71617  12.280   8.290   7.316
  1048G11  C0AL71618  11.838   8.237   7.618
  1048G11  C0AK71619  11.702   8.241   7.579
  1048G11  C0B071620  12.067   8.344   7.337
  1048G11  C0AZ71621  12.051   8.420   7.221
  1048G11  H00X71622  12.125   8.433   7.144
  1048G11  C0AJ71623  11.665   8.305   7.455
  1048G11  C0AH71624  11.497   8.388   7.322
  1048G11  C0AE71625  11.468   8.594   7.145
  1048G11  C0AD71626  11.444   8.691   7.048
  1048G11  C0AY71627  11.912   8.473   7.222
  1048G11  C0AB71628  11.681   8.691   6.996
  1048G11  C0AC71629  11.552   8.742   6.978
  1048G11  C0BM71630  11.283   8.823   6.927
  1048G11  C0CM71631  11.189   9.016   6.564
  1048G11  C09M71632  11.074   9.101   6.562
  1048G11  C09871633  11.078   9.213   6.474
  1048G11  C08R71634  10.973   9.291   6.407
  1048G11  C08Q71635  11.018   9.401   6.318
  1048G11  C08P71636  10.965   9.466   6.197
  1048G11  C08Y71637  11.059   9.505   6.099
  1048G11  C09771638  11.185   9.450   6.107
  1048G11  C09671639  11.230   9.411   5.981
  1048G11  C09071640  11.152   9.492   5.895
  1048G11  C09571641  11.154   9.485   5.751
  1048G11  C09471642  11.076   9.571   5.668
  1048G11  C08J71643  10.951   9.632   5.696
  1048G11  C08I71644  10.875   9.624   5.577
  1048G11  C08H71645  10.728   9.626   5.606
  1048G11  C08G71646  10.720   9.605   5.752
  1048G11  C08F71647  10.622   9.611   5.861
  1048G11  C08E71648  10.489   9.654   5.830
  1048G11  C05971649  10.446   9.730   5.721
  1048G11  C05871650  10.315   9.780   5.712
  1048G11  C05771651  10.254   9.839   5.600
  1048G11  C05671652  10.339   9.862   5.487
  1048G11  C05571653  10.474   9.849   5.494
  1048G11  C05471654  10.520   9.829   5.358
  1048G11  C05371655  10.407   9.831   5.269
  1048G11  C05271656  10.391   9.784   5.131
  1048G11  C05171657  10.504   9.729   5.055
  1048G11  C05U71658  10.634   9.700   5.114
  1048G11  C05T71659  10.690   9.687   5.251
  1048G11  C06K71660  10.831   9.668   5.234
  1048G11  H00J71661  10.904   9.677   5.313
  1048G11  C06L71662  10.862   9.642   5.097
  1048G11  H00I71663  10.955   9.623   5.047
  1048G11  C05V71664  10.739   9.665   5.022
  1048G11  C06J71665  10.724   9.654   4.882
  1048G11  H00K71666  10.810   9.633   4.819
  1048G11  C05X71667  10.603   9.676   4.825
  1048G11  C06I71668  10.569   9.665   4.686
  1048G11  H00L71669  10.650   9.656   4.616
  1048G11  C04Z71670  10.441   9.672   4.627
  1048G11  C06H71671  10.414   9.657   4.485
  1048G11  H00H71672  10.498   9.645   4.418
  1048G11  C04Y71673  10.284   9.656   4.434
  1048G11  C06G71674  10.261   9.638   4.294
  1048G11  O00971675  10.350   9.618   4.215
  1048G11  O00871676  10.135   9.647   4.251
  1048G11  C04P71677  10.030   9.662   4.334
  1048G11  C04J71678   9.896   9.675   4.289
  1048G11  C04Q71679   9.848   9.671   4.159
  1048G11  H00E71680   9.927   9.678   4.085
  1048G11  C04M71681   9.710   9.662   4.129
  1048G11  C04R71682   9.662   9.633   4.006
  1048G11  H00F71683   9.735   9.627   3.927
  1048G11  C04S71684   9.530   9.624   3.983
  1048G11  H00G71685   9.492   9.616   3.883
  1048G11  O00771686   9.435   9.639   4.080
  1048G11  C03V71687   9.481   9.661   4.208
  1048G11  C03U71688   9.390   9.673   4.309
  1048G11  O00671689   9.257   9.662   4.270
  1048G11  C03F71690   9.156   9.682   4.362
  1048G11  C03E71691   9.193   9.710   4.500
  1048G11  C03D71692   9.326   9.713   4.535
  1048G11  C03C71693   9.362   9.736   4.673
  1048G11  C03B71694   9.250   9.761   4.751
  1048G11  C03A71695   9.280   9.807   4.878
  1048G11  C03971696   9.416   9.815   4.928
  1048G11  C03871697   9.392   9.853   5.067
  1048G11  C03771698   9.253   9.860   5.082
  1048G11  C03671699   9.199   9.887   5.206
  1048G11  C02R71700   9.071   9.873   5.248
  1048G11  C03571701   9.083   9.880   5.385
  1048G11  C03R71702   9.212   9.890   5.428
  1048G11  C03S71703   9.258   9.845   5.551
  1048G11  C04971704   9.393   9.831   5.560
  1048G11  C04871705   9.465   9.858   5.445
  1048G11  C03P71706   9.421   9.865   5.309
  1048G11  C04771707   9.604   9.853   5.481
  1048G11  C04671708   9.713   9.880   5.396
  1048G11  C04571709   9.716   9.890   5.261
  1048G11  C03T71710   9.624   9.871   5.164
  1048G11  C04471711   9.689   9.871   5.036
  1048G11  C04371712   9.822   9.918   5.053
  1048G11  C04271713   9.898   9.860   4.951
  1048G11  C04171714   9.798   9.795   4.862
  1048G11  C04071715   9.827   9.736   4.736
  1048G11  C03Z71716   9.742   9.726   4.623
  1048G11  C04H71717   9.825   9.696   4.514
  1048G11  C04G71718   9.950   9.684   4.556
  1048G11  C03N71719   9.597   9.737   4.603
  1048G11  C03Y71720   9.563   9.714   4.468
  1048G11  C03X71721   9.656   9.696   4.365
  1048G11  C04F71722   9.964   9.723   4.686
  1048G11  C04E71723  10.094   9.732   4.737
  1048G11  C04O71724  10.202   9.691   4.656
  1048G11  C04D71725  10.132   9.779   4.867
  1048G11  C04V71726  10.257   9.759   4.917
  1048G11  C04W71727  10.366   9.701   4.844
  1048G11  C04C71728  10.043   9.830   4.966
  1048G11  C04L71729  10.129   9.847   5.087
  1048G11  C04U71730  10.094   9.917   5.210
  1048G11  C05Q71731  10.169   9.898   5.333
  1048G11  C05P71732  10.081   9.894   5.443
  1048G11  C04T71733   9.953   9.899   5.399
  1048G11  C04B71734   9.961   9.910   5.263
  1048G11  C03M71735   9.664   9.821   4.901
  1048G11  C04A71736   9.839   9.910   5.192
  1048G11  C05H71737   9.826   9.885   5.469
  1048G11  C05G71738   9.795   9.850   5.600
  1048G11  C05F71739   9.891   9.840   5.705
  1048G11  C05E71740   9.869   9.777   5.831
  1048G11  C05L71741   9.754   9.722   5.901
  1048G11  C05K71742   9.619   9.734   5.852
  1048G11  C05J71743   9.573   9.789   5.725
  1048G11  C06671744   9.519   9.677   5.935
  1048G11  C06571745   9.552   9.621   6.062
  1048G11  C06471746   9.687   9.615   6.104
  1048G11  C06N71747   9.463   9.562   6.144
  1048G11  C06971748   9.328   9.559   6.102
  1048G11  C06P71749   9.231   9.489   6.173
  1048G11  C06R71750   9.097   9.486   6.139
  1048G11  C06B71751   9.054   9.559   6.027
  1048G11  C06S71752   8.919   9.562   5.998
  1048G11  C02G71753   8.885   9.634   5.884
  1048G11  C02F71754   8.750   9.629   5.844
  1048G11  C02771755   8.659   9.550   5.916
  1048G11  C02671756   8.523   9.556   5.881
  1048G11  C00E71757   8.431   9.489   5.959
  1048G11  C00D71758   8.301   9.487   5.920
  1048G11  C00C71759   8.207   9.417   5.996
  1048G11  C00B71760   8.234   9.341   6.108
  1048G11  C01571761   8.368   9.341   6.145
  1048G11  C07F71762   8.411   9.257   6.243
  1048G11  C07E71763   8.546   9.254   6.281
  1048G11  C06W71764   8.639   9.326   6.214
  1048G11  C06V71765   8.602   9.407   6.106
  1048G11  C06X71766   8.774   9.327   6.239
  1048G11  C07B71767   8.816   9.245   6.339
  1048G11  C07C71768   8.724   9.162   6.409
  1048G11  C0FU71769   8.771   9.084   6.520
  1048G11  C0F771770   8.686   9.001   6.584
  1048G11  C0F671771   8.731   8.926   6.691
  1048G11  C0F871772   8.643   8.840   6.749
  1048G11  C0F971773   8.692   8.764   6.854
  1048G11  C0FA71774   8.610   8.668   6.905
  1048G11  C0FZ71775   8.483   8.647   6.854
  1048G11  C0G071776   8.400   8.552   6.907
  1048G11  C0GD71777   8.445   8.462   7.007
  1048G11  C0FC71778   8.564   8.487   7.067
  1048G11  C0GH71779   8.593   8.418   7.186
  1048G11  C0EY71780   8.715   8.449   7.255
  1048G11  C0EX71781   8.744   8.385   7.383
  1048G11  C0EW71782   8.850   8.434   7.453
  1048G11  C0FR71783   8.891   8.370   7.576
  1048G11  H01D71784   8.977   8.407   7.629
  1048G11  C0FS71785   8.813   8.265   7.629
  1048G11  H01C71786   8.834   8.231   7.730
  1048G11  C0GJ71787   8.699   8.225   7.555
  1048G11  H01N71788   8.628   8.153   7.594
  1048G11  C0EV71789   8.935   8.536   7.398
  1048G11  C0FT71790   9.042   8.594   7.468
  1048G11  H01E71791   9.080   8.578   7.568
  1048G11  C0EU71792   8.914   8.584   7.267
  1048G11  C0ET71793   9.000   8.674   7.199
  1048G11  C0EI71794   8.981   8.743   7.081
  1048G11  C0F171795   8.856   8.718   7.023
  1048G11  C0F071796   8.769   8.612   7.076
  1048G11  C0EH71797   9.074   8.839   7.031
  1048G11  C0EG71798   9.196   8.870   7.096
  1048G11  C0EJ71799   9.038   8.900   6.910
  1048G11  C0F371800   8.906   8.880   6.854
  1048G11  C0EK71801   9.120   8.994   6.851
  1048G11  C0EL71802   9.248   9.029   6.911
  1048G11  C0EM71803   9.327   9.114   6.825
  1048G11  C0EN71804   9.279   9.153   6.700
  1048G11  C07I71805   9.364   9.232   6.630
  1048G11  C07471806   9.333   9.296   6.510
  1048G11  C07371807   9.425   9.376   6.462
  1048G11  C07271808   9.392   9.439   6.339
  1048G11  C07571809   9.205   9.278   6.462
  1048G11  C07671810   9.113   9.197   6.534
  1048G11  C07871811   8.987   9.181   6.489
  1048G11  C07G71812   9.167   9.341   6.353
  1048G11  C07071813   9.037   9.334   6.313
  1048G11  C07Z71814   9.480   9.245   6.704
  1048G11  C07771815   9.152   9.132   6.651
  1048G11  C0EO71816   9.076   9.051   6.728
  1048G11  C0F471817   8.954   9.025   6.674
  1048G11  C0EQ71818   9.109   8.722   7.268
  1048G11  C0FQ71819   8.664   8.281   7.428
  1048G11  C0GI71820   8.549   8.250   7.352
  1048G11  H01L71821   8.486   8.168   7.383
  1048G11  C0EZ71822   8.805   8.545   7.196
  1048G11  C0GG71823   8.514   8.309   7.234
  1048G11  C0GF71824   8.404   8.266   7.156
  1048G11  H01M71825   8.346   8.179   7.183
  1048G11  C0GE71826   8.372   8.344   7.042
  1048G11  H01K71827   8.294   8.307   6.978
  1048G11  O00J71828   8.274   8.537   6.859
  1048G11  C0GA71829   8.221   8.625   6.769
  1048G11  C0G971830   8.084   8.628   6.742
  1048G11  H01H71831   8.022   8.569   6.808
  1048G11  C0G871832   8.025   8.721   6.657
  1048G11  C0G771833   7.889   8.732   6.628
  1048G11  H01I71834   7.827   8.649   6.660
  1048G11  O00I71835   7.829   8.836   6.554
  1048G11  C0G671836   7.911   8.925   6.498
  1048G11  H01J71837   7.859   9.016   6.470
  1048G11  C02D71838   8.052   8.918   6.515
  1048G11  C02C71839   8.138   9.004   6.442
  1048G11  C01771840   8.095   9.081   6.334
  1048G11  C01671841   8.185   9.172   6.267
  1048G11  O00171842   7.966   9.080   6.284
  1048G11  C01871843   7.924   9.142   6.167
  1048G11  C00971844   8.003   9.243   6.116
  1048G11  C00871845   7.975   9.338   6.006
  1048G11  C00771846   7.865   9.349   5.913
  1048G11  C00671847   7.760   9.261   5.905
  1048G11  C00571848   7.660   9.259   5.800
  1048G11  C00471849   7.650   9.339   5.682
  1048G11  C00371850   7.751   9.408   5.607
  1048G11  C00271851   7.719   9.438   5.470
  1048G11  C00P71852   7.824   9.482   5.388
  1048G11  C00O71853   7.809   9.494   5.249
  1048G11  C00N71854   7.909   9.529   5.159
  1048G11  C01071855   7.892   9.539   5.020
  1048G11  C01171856   7.996   9.572   4.932
  1048G11  C01Q71857   7.973   9.577   4.797
  1048G11  C01U71858   7.842   9.557   4.744
  1048G11  C01271859   7.739   9.532   4.835
  1048G11  H00071860   7.640   9.498   4.809
  1048G11  C01V71861   7.828   9.555   4.600
  1048G11  H00771862   7.735   9.519   4.560
  1048G11  O00571863   7.938   9.568   4.518
  1048G11  C01W71864   8.065   9.574   4.572
  1048G11  C03171865   8.169   9.574   4.487
  1048G11  C03271866   8.298   9.584   4.531
  1048G11  H00A71867   8.372   9.576   4.453
  1048G11  C03371868   8.319   9.595   4.669
  1048G11  H00B71869   8.417   9.581   4.711
  1048G11  C01O71870   8.213   9.605   4.756
  1048G11  C01N71871   8.239   9.625   4.893
  1048G11  C01M71872   8.368   9.676   4.956
  1048G11  C01L71873   8.516   9.723   4.936
  1048G11  C01K71874   8.567   9.750   5.065
  1048G11  C01Y71875   8.701   9.782   5.100
  1048G11  C02I71876   8.800   9.782   5.006
  1048G11  C02N71877   8.936   9.814   5.047
  1048G11  C02M71878   9.036   9.808   4.947
  1048G11  C02L71879   9.007   9.770   4.815
  1048G11  C02K71880   8.870   9.761   4.774
  1048G11  C02U71881   8.846   9.759   4.639
  1048G11  C02V71882   8.953   9.725   4.551
  1048G11  C03H71883   8.922   9.705   4.415
  1048G11  H00C71884   8.826   9.698   4.367
  1048G11  C02W71885   8.713   9.775   4.596
  1048G11  C02X71886   8.616   9.777   4.692
  1048G11  C02Y71887   8.496   9.811   4.633
  1048G11  H00871888   8.403   9.833   4.684
  1048G11  C02Z71889   8.520   9.804   4.483
  1048G11  O00471890   8.436   9.809   4.392
  1048G11  O00371891   8.657   9.783   4.471
  1048G11  C02J71892   8.763   9.768   4.871
  1048G11  C01Z71893   8.721   9.789   5.239
  1048G11  C02071894   8.618   9.764   5.335
  1048G11  C01I71895   8.493   9.731   5.289
  1048G11  C01H71896   8.392   9.678   5.369
  1048G11  C00K71897   8.268   9.645   5.318
  1048G11  C01S71898   8.250   9.639   5.179
  1048G11  C01471899   8.133   9.593   5.122
  1048G11  C00J71900   8.166   9.607   5.404
  1048G11  C00I71901   8.193   9.596   5.540
  1048G11  C00H71902   8.321   9.625   5.587
  1048G11  C00G71903   8.351   9.596   5.715
  1048G11  C00S71904   8.100   9.541   5.620
  1048G11  C00T71905   8.131   9.531   5.749
  1048G11  C00U71906   8.039   9.467   5.833
  1048G11  C00R71907   7.974   9.505   5.578
  1048G11  C00L71908   8.047   9.561   5.351
  1048G11  C02871909   8.422   9.668   5.504
  1048G11  C02371910   8.548   9.696   5.547
  1048G11  C02471911   8.581   9.666   5.675
  1048G11  C02171912   8.645   9.751   5.464
  1048G11  C02271913   8.771   9.772   5.511
  1048G11  C02H71914   8.803   9.745   5.646
  1048G11  C03071915   8.937   9.743   5.685
  1048G11  C03471916   9.026   9.796   5.598
  1048G11  C02P71917   8.868   9.818   5.422
  1048G11  C02B71918   8.845   9.825   5.280
  1048G11  C01J71919   8.464   9.733   5.154
  1048G11  C01X71920   8.618   9.757   4.833
  1048G11  C01T71921   8.354   9.682   5.098
  1048G11  H00971922   8.148   9.577   4.381
  1048G11  C01P71923   8.084   9.590   4.709
  1048G11  C01R71924   8.125   9.596   4.981
  1048G11  C00Z71925   7.764   9.519   4.972
  1048G11  O00071926   7.668   9.482   5.055
  1048G11  C00M71927   8.031   9.562   5.209
  1048G11  C00Y71928   7.685   9.464   5.188
  1048G11  C01371929   7.581   9.437   5.272
  1048G11  H00171930   7.485   9.444   5.224
  1048G11  C00Q71931   7.946   9.520   5.441
  1048G11  C00171932   7.596   9.420   5.411
  1048G11  C00071933   7.494   9.388   5.505
  1048G11  H00671934   7.393   9.400   5.470
  1048G11  C00W71935   7.875   9.445   5.654
  1048G11  C01G71936   7.517   9.347   5.634
  1048G11  H00571937   7.432   9.320   5.695
  1048G11  C01C71938   7.576   9.150   5.835
  1048G11  H00271939   7.484   9.115   5.790
  1048G11  C01B71940   7.623   9.085   5.952
  1048G11  C01D71941   7.562   8.986   6.024
  1048G11  H00371942   7.473   8.927   6.006
  1048G11  C01E71943   7.627   8.939   6.133
  1048G11  H00471944   7.581   8.862   6.194
  1048G11  O00271945   7.744   8.992   6.182
  1048G11  C01A71946   7.736   9.153   6.000
  1048G11  C00V71947   7.911   9.424   5.796
  1048G11  C01971948   7.804   9.102   6.115
  1048G11  C02E71949   8.278   8.998   6.469
  1048G11  C0FX71950   8.325   8.914   6.569
  1048G11  C0FW71951   8.459   8.915   6.602
  1048G11  C0GB71952   8.245   8.817   6.622
  1048G11  C0G371953   8.366   9.087   6.410
  1048G11  C07H71954   8.503   9.086   6.445
  1048G11  C0GC71955   8.109   8.823   6.599
  1048G11  C0G271956   8.302   8.724   6.710
  1048G11  C0G171957   8.432   8.734   6.755
  1048G11  C0FB71958   8.649   8.589   7.014
  1048G11  C0F271959   8.817   8.788   6.913
  1048G11  C0FY71960   8.511   8.831   6.698
  1048G11  C0F571961   8.865   8.943   6.740
  1048G11  C0FV71962   8.552   8.998   6.544
  1048G11  C07971963   8.903   9.098   6.567
  1048G11  C07A71964   8.949   9.245   6.374
  1048G11  C06Y71965   8.867   9.406   6.169
  1048G11  C07D71966   8.591   9.173   6.380
  1048G11  C01F71967   8.320   9.179   6.314
  1048G11  C00A71968   8.135   9.257   6.167
  1048G11  C00X71969   8.070   9.425   5.962
  1048G11  C00F71970   8.262   9.542   5.799
  1048G11  C02971971   8.467   9.415   6.071
  1048G11  C02571972   8.486   9.608   5.757
  1048G11  C06U71973   8.697   9.483   6.031
  1048G11  C02A71974   8.711   9.684   5.723
  1048G11  C05Y71975   8.980   9.692   5.801
  1048G11  C05Z71976   9.116   9.687   5.836
  1048G11  C06071977   9.210   9.750   5.753
  1048G11  C06271978   9.344   9.743   5.779
  1048G11  C06T71979   8.827   9.487   6.065
  1048G11  C06A71980   9.154   9.625   5.949
  1048G11  C06Z71981   9.002   9.411   6.208
  1048G11  C06Q71982   9.264   9.420   6.285
  1048G11  C06871983   9.289   9.625   5.986
  1048G11  C06771984   9.384   9.681   5.903
  1048G11  C06371985   9.785   9.664   6.028
  1048G11  C06C71986   9.917   9.641   6.071
  1048G11  C06D71987  10.025   9.676   5.997
  1048G11  C06E71988  10.161   9.646   6.018
  1048G11  C07Q71989  10.190   9.577   6.128
  1048G11  C07P71990  10.088   9.547   6.218
  1048G11  C07T71991  10.119   9.492   6.336
  1048G11  C07U71992  10.015   9.458   6.422
  1048G11  C07V71993  10.047   9.395   6.548
  1048G11  C08471994  10.181   9.355   6.569
  1048G11  C08C71995  10.275   9.382   6.480
  1048G11  C08B71996  10.402   9.331   6.495
  1048G11  C08A71997  10.496   9.359   6.402
  1048G11  C08971998  10.482   9.442   6.295
  1048G11  C08871999  10.584   9.465   6.201
  1048G11  C08772000  10.559   9.530   6.084
  1048G11  C08672001  10.424   9.564   6.053
  1048G11  C08X72002  10.719   9.431   6.236
  1048G11  C08T72003  10.733   9.343   6.355
  1048G11  C08D72004  10.353   9.483   6.269
  1048G11  C08U72005  10.623   9.302   6.421
  1048G11  C08V72006  10.652   9.217   6.524
  1048G11  C0CY72007  10.556   9.200   6.627
  1048G11  C0CX72008  10.597   9.122   6.731
  1048G11  C0CW72009  10.497   9.095   6.822
  1048G11  C0CV72010  10.372   9.149   6.811
  1048G11  C0D472011  10.338   9.234   6.702
  1048G11  C0CU72012  10.283   9.125   6.914
  1048G11  C0CT72013  10.308   9.049   7.029
  1048G11  C0CS72014  10.435   8.995   7.031
  1048G11  C0D672015  10.163   9.182   6.891
  1048G11  C0EC72016  10.125   9.263   6.782
  1048G11  C07X72017   9.992   9.298   6.757
  1048G11  C0DL72018  10.061   9.149   6.978
  1048G11  C0DK72019   9.931   9.196   6.962
  1048G11  C0DN72020   9.859   9.144   7.066
  1048G11  C0D872021  10.075   9.069   7.094
  1048G11  C08W72022  10.789   9.193   6.535
  1048G11  C0CQ72023  10.831   9.115   6.647
  1048G11  C09372024  10.433   9.256   6.605
  1048G11  C09272025  10.211   9.284   6.683
  1048G11  C08572026  10.248   9.450   6.360
  1048G11  C07S72027  10.323   9.539   6.148
  1048G11  C06F72028  10.264   9.681   5.927
  1048G11  C07O72029   9.951   9.578   6.189
  1048G11  C07N72030   9.848   9.547   6.273
  1048G11  C05D72031   9.998   9.765   5.894
  1048G11  C05C72032  10.096   9.796   5.800
  1048G11  C05N72033  10.035   9.844   5.688
  1048G11  C05M72034   9.658   9.831   5.615
  1048G11  C05I72035   9.439   9.786   5.684
  1048G11  C06172036   9.161   9.801   5.636
  1048G11  C02Q72037   8.988   9.838   5.475
  1048G11  C02O72038   8.949   9.841   5.186
  1048G11  C03Q72039   9.285   9.887   5.312
  1048G11  C03O72040   9.483   9.862   5.179
  1048G11  C03L72041   9.532   9.794   4.844
  1048G11  C02S72042   9.181   9.822   4.974
  1048G11  C02T72043   9.113   9.752   4.723
  1048G11  C03K72044   9.499   9.753   4.707
  1048G11  C03I72045   9.086   9.723   4.591
  1048G11  C03G72046   9.021   9.684   4.320
  1048G11  H00D72047   8.999   9.665   4.216
  1048G11  C03J72048   9.427   9.699   4.437
  1048G11  C03W72049   9.618   9.677   4.235
  1048G11  C04I72050   9.794   9.695   4.385
  1048G11  C04K72051  10.053   9.676   4.467
  1048G11  C04N72052  10.177   9.668   4.518
  1048G11  C04X72053  10.336   9.686   4.707
  1048G11  C05072054  10.490   9.701   4.911
  1048G11  C05W72055  10.268   9.800   5.055
  1048G11  C05S72056  10.622   9.728   5.373
  1048G11  C05R72057  10.304   9.874   5.356
  1048G11  C05O72058  10.118   9.868   5.577
  1048G11  C05B72059  10.230   9.757   5.814
  1048G11  C05A72060  10.516   9.753   5.592
  1048G11  C07R72061  10.393   9.635   5.935
  1048G11  C08N72062  10.660   9.553   5.985
  1048G11  C08M72063  10.798   9.527   6.023
  1048G11  C08L72064  10.899   9.558   5.931
  1048G11  C09172065  10.630   9.692   5.524
  1048G11  C09K72066  10.941   9.523   5.492
  1048G11  H00M72067  10.896   9.471   5.409
  1048G11  C08K72068  10.858   9.599   5.803
  1048G11  C09J72069  11.076   9.502   5.548
  1048G11  C09I72070  11.171   9.393   5.549
  1048G11  C09L72071  11.209   9.306   5.445
  1048G11  H00N72072  11.161   9.307   5.348
  1048G11  C09Q72073  11.313   9.227   5.475
  1048G11  H00O72074  11.338   9.146   5.408
  1048G11  O00B72075  11.387   9.229   5.593
  1048G11  C09G72076  11.325   9.289   5.706
  1048G11  C09F72077  11.377   9.255   5.837
  1048G11  O00A72078  11.479   9.168   5.828
  1048G11  C09P72079  11.546   9.153   5.948
  1048G11  H00P72080  11.653   9.164   5.953
  1048G11  C09O72081  11.470   9.132   6.063
  1048G11  C09D72082  11.367   9.237   6.083
  1048G11  C09C72083  11.305   9.279   6.207
  1048G11  C09N72084  11.290   9.208   6.332
  1048G11  C09T72085  11.313   9.067   6.337
  1048G11  C09S72086  11.426   9.004   6.267
  1048G11  C0CP72087  11.444   8.882   6.338
  1048G11  C0CN72088  11.353   8.858   6.443
  1048G11  C0CO72089  11.347   8.738   6.511
  1048G11  H01472090  11.277   8.706   6.587
  1048G11  C0CZ72091  11.459   8.657   6.478
  1048G11  H01572092  11.464   8.570   6.542
  1048G11  C0D072093  11.564   8.687   6.386
  1048G11  C0G572094  11.684   8.606   6.358
  1048G11  H01F72095  11.697   8.519   6.420
  1048G11  C0G472096  11.782   8.649   6.271
  1048G11  H01G72097  11.869   8.588   6.258
  1048G11  O00H72098  11.762   8.760   6.189
  1048G11  C0D272099  11.647   8.834   6.207
  1048G11  C09V72100  11.617   8.950   6.129
  1048G11  H00Q72101  11.688   8.967   6.049
  1048G11  C0D172102  11.554   8.801   6.305
  1048G11  C09R72103  11.500   9.028   6.151
  1048G11  C09H72104  11.231   9.390   5.676
  1048G11  C09E72105  11.330   9.306   5.962
  1048G11  C09B72106  11.227   9.385   6.216
  1048G11  C08Z72107  11.032   9.525   5.968
  1048G11  C08O72108  10.828   9.473   6.153
  1048G11  C09A72109  11.158   9.393   6.338
  1048G11  C08S72110  10.839   9.263   6.419
  1048G11  C09972111  11.196   9.277   6.414
  1048G11  C09U72112  11.276   8.984   6.451
  1048G11  C0BO72113  11.152   8.860   6.899
  1048G11  C0CL72114  10.965   9.072   6.660
  1048G11  C0D372115  10.729   9.076   6.735
  1048G11  C0D572116  10.532   9.017   6.931
  1048G11  C0BR72117  10.922   8.873   6.972
  1048G11  C0BQ72118  11.052   8.830   6.992
  1048G11  C0BL72119  11.310   8.739   7.031
  1048G11  C0AF72120  11.362   8.548   7.217
  1048G11  C0BH72121  11.004   8.619   7.292
  1048G11  C0BG72122  10.904   8.590   7.385
  1048G11  C0BD72123  11.055   8.430   7.483
  1048G11  C0AG72124  11.370   8.442   7.301
  1048G11  C0AI72125  11.526   8.304   7.423
  1048G11  C0AV72126  11.595   8.192   7.657
  1048G11  C0BB72127  11.226   8.153   7.654
  1048G11  O00C72128  11.508   8.120   7.872
  1048G11  C0BC72129  11.152   8.126   7.765
  1048G11  C0B972130  11.075   8.326   7.580
  1048G11  O00E72131  10.786   8.373   7.804
  1048G11  C0CA72132  10.666   8.420   7.801
  1048G11  O00F72133  10.582   8.375   7.882
  1048G11  C0BF72134  10.938   8.501   7.487
  1048G11  C0C572135  10.637   8.519   7.697
  1048G11  C0C472136  10.509   8.584   7.694
  1048G11  H01172137  10.431   8.563   7.766
  1048G11  C0C872138  10.785   8.655   7.382
  1048G11  C0C272139  10.483   8.672   7.586
  1048G11  C0C372140  10.367   8.752   7.576
  1048G11  C0DY72141  10.263   8.762   7.674
  1048G11  H01672142  10.253   8.732   7.777
  1048G11  C0DX72143  10.154   8.825   7.597
  1048G11  C0DW72144  10.025   8.839   7.655
  1048G11  C0BY72145  10.635   8.791   7.263
  1048G11  C0DB72146  10.328   8.815   7.457
  1048G11  C0CC72147  10.466   8.918   7.139
  1048G11  C0D772148  10.209   9.029   7.125
  1048G11  C0DZ72149  10.196   8.859   7.465
  1048G11  C0DM72150   9.945   9.072   7.156
  1048G11  C0DQ72151   9.892   8.876   7.446
  1048G11  C0DV72152   9.911   8.832   7.576
  1048G11  C0E072153   9.987   8.795   7.786
  1048G11  C0FO72154   9.658   8.767   7.920
  1048G11  C0E372155   9.990   8.876   7.911
  1048G11  H01772156  10.049   8.963   7.936
  1048G11  C0GV72157   9.654   8.838   8.038
  1048G11  C0ES72158   9.556   8.789   7.829
  1048G11  C0GQ72159   9.311   8.939   8.069
  1048G11  C0FJ72160   9.079   8.896   7.781
  1048G11  C0ED72161   9.330   8.836   7.653
  1048G11  C0ER72162   9.117   8.693   7.400
  1048G11  C0EP72163   9.207   8.811   7.224
  1048G11  C0E672164   9.509   8.852   7.468
  1048G11  C0DE72165   9.625   9.009   7.233
  1048G11  C0EA72166   9.291   8.972   7.040
  1048G11  C0DF72167   9.621   9.113   7.133
  1048G11  C08072168   9.460   9.170   6.825
  1048G11  C0DO72169   9.721   9.159   7.049
  1048G11  C0DJ72170   9.890   9.264   6.846
  1048G11  C07K72171   9.579   9.330   6.642
  1048G11  C07W72172   9.950   9.366   6.638
  1048G11  C08372173   9.881   9.492   6.397
  1048G11  C07J72174   9.551   9.387   6.515
  1048G11  C06O72175   9.492   9.507   6.268
  1048G11  C06M72176   9.719   9.568   6.232
  1058G11  C07172177   6.402   6.963  10.097
  1058G11  C07L72178   6.306   6.866  10.060
  1058G11  C07M72179   6.327   6.792   9.948
  1058G11  C07Y72180   6.239   6.687   9.910
  1058G11  C08172181   6.125   6.658   9.989
  1058G11  C08272182   6.046   6.551   9.954
  1058G11  C0DI72183   5.915   6.498  10.011
  1058G11  C0DH72184   5.835   6.531  10.120
  1058G11  C0DG72185   5.719   6.446  10.125
  1058G11  C0E972186   5.648   6.388  10.239
  1058G11  C0E872187   5.596   6.259  10.178
  1058G11  C0E772188   5.481   6.181  10.216
  1058G11  C0EB72189   5.395   6.235  10.318
  1058G11  C0EF72190   5.261   6.182  10.353
  1058G11  C0EE72191   5.167   6.110  10.282
  1058G11  C0FD72192   5.029   6.152  10.284
  1058G11  C0FE72193   4.983   6.279  10.333
  1058G11  H01B72194   5.057   6.357  10.334
  1058G11  C0FF72195   4.848   6.318  10.339
  1058G11  H01A72196   4.814   6.418  10.362
  1058G11  C0FG72197   4.758   6.216  10.313
  1058G11  H01872198   4.651   6.234  10.313
  1058G11  C0FH72199   4.793   6.086  10.270
  1058G11  C0FI72200   4.700   5.975  10.242
  1058G11  H01972201   4.593   5.988  10.240
  1058G11  O00K72202   4.742   5.855  10.193
  1058G11  C0FL72203   4.876   5.831  10.194
  1058G11  C0FK72204   4.974   5.926  10.217
  1058G11  C0FM72205   5.110   5.894  10.200
  1058G11  C0FN72206   5.142   5.764  10.160
  1058G11  C0FP72207   5.035   5.674  10.128
  1058G11  C0GO72208   5.059   5.546  10.073
  1058G11  C0GN72209   4.967   5.464  10.011
  1058G11  C0GR72210   4.834   5.504  10.037
  1058G11  C0GS72211   4.727   5.430   9.986
  1058G11  H01Q72212   4.628   5.463  10.015
  1058G11  C0GT72213   4.755   5.329   9.896
  1058G11  H01O72214   4.690   5.285   9.822
  1058G11  C0GU72215   4.890   5.291   9.874
  1058G11  H01P72216   4.907   5.201   9.816
  1058G11  O00L72217   4.809   5.614  10.115
  1058G11  C0GM72218   4.998   5.352   9.927
  1058G11  C0GL72219   5.139   5.325   9.904
  1058G11  H01R72220   5.170   5.255   9.828
  1058G11  C0GK72221   5.233   5.401   9.974
  1058G11  C0GP72222   5.378   5.424   9.976
  1058G11  C0E272223   5.415   5.520  10.075
  1058G11  C0E172224   5.536   5.588  10.042
  1058G11  C0DU72225   5.554   5.724  10.023
  1058G11  C0DT72226   5.492   5.826  10.095
  1058G11  C0E472227   5.369   5.822  10.152
  1058G11  C0E572228   5.341   5.953  10.195
  1058G11  C0DS72229   5.536   5.956  10.088
  1058G11  C0DR72230   5.631   5.980   9.992
  1058G11  C0DD72231   5.690   6.103   9.965
  1058G11  C0DC72232   5.778   6.084   9.847
  1058G11  C0DP72233   5.776   5.943   9.804
  1058G11  C0DA72234   5.851   5.877   9.694
  1058G11  C0D972235   5.963   5.924   9.602
  1058G11  C0CR72236   6.012   5.841   9.496
  1058G11  C0C072237   5.973   5.708   9.485
  1058G11  C0BZ72238   6.020   5.619   9.390
  1058G11  C0C172239   5.970   5.488   9.372
  1058G11  C0C772240   6.018   5.400   9.276
  1058G11  C0C672241   5.971   5.267   9.270
  1058G11  C0C972242   6.032   5.179   9.186
  1058G11  C0B872243   5.981   5.049   9.171
  1058G11  C0B772244   6.049   4.947   9.100
  1058G11  C0B672245   6.019   4.807   9.070
  1058G11  C0B572246   5.892   4.741   9.074
  1058G11  H00Z72247   5.813   4.793   9.125
  1058G11  C0B472248   5.903   4.625   8.981
  1058G11  H01072249   5.821   4.568   8.941
  1058G11  C0B372250   6.036   4.626   8.925
  1058G11  C0AP72251   6.133   4.600   8.815
  1058G11  C0AQ72252   6.235   4.696   8.834
  1058G11  C0AR72253   6.311   4.746   8.726
  1058G11  C0AS72254   6.367   4.866   8.754
  1058G11  C0AT72255   6.328   4.954   8.854
  1058G11  C0BA72256   6.246   4.908   8.954
  1058G11  C0AU72257   6.364   5.085   8.855
  1058G11  C0BE72258   6.300   5.173   8.933
  1058G11  C0BI72259   6.333   5.310   8.931
  1058G11  C0BJ72260   6.421   5.355   8.831
  1058G11  C0BK72261   6.459   5.485   8.830
  1058G11  C0BW72262   6.413   5.579   8.925
  1058G11  C0BV72263   6.318   5.532   9.017
  1058G11  C0BU72264   6.265   5.618   9.112
  1058G11  C0BX72265   6.168   5.573   9.199
  1058G11  C0BT72266   6.316   5.749   9.119
  1058G11  C0CD72267   6.269   5.838   9.222
  1058G11  C0CB72268   6.168   5.794   9.314
  1058G11  C0CE72269   6.324   5.964   9.228
  1058G11  C0CK72270   6.429   5.999   9.139
  1058G11  C0BS72271   6.480   5.919   9.040
  1058G11  C0CJ72272   6.582   5.964   8.949
  1058G11  C0BP72273   6.615   5.875   8.839
  1058G11  C0CI72274   6.699   5.915   8.737
  1058G11  C0CH72275   6.678   5.850   8.611
  1058G11  H01272276   6.719   5.900   8.524
  1058G11  C0BN72277   6.649   5.712   8.613
  1058G11  C0CG72278   6.669   5.629   8.502
  1058G11  C0CF72279   6.729   5.677   8.384
  1058G11  H01372280   6.767   5.778   8.383
  1058G11  O00G72281   6.739   5.609   8.267
  1058G11  C0AA72282   6.717   5.472   8.276
  1058G11  C0A972283   6.716   5.402   8.153
  1058G11  H00U72284   6.745   5.453   8.062
  1058G11  C0A872285   6.674   5.268   8.150
  1058G11  H00V72286   6.684   5.227   8.050
  1058G11  C0A772287   6.638   5.193   8.263
  1058G11  C0A672288   6.624   5.275   8.389
  1058G11  C0A572289   6.573   5.226   8.512
  1058G11  C0A472290   6.535   5.085   8.528
  1058G11  C0A372291   6.522   4.967   8.449
  1058G11  C0A272292   6.536   4.958   8.312
  1058G11  C0A172293   6.540   4.831   8.249
  1058G11  C0A072294   6.500   4.694   8.271
  1058G11  C09Z72295   6.524   4.598   8.171
  1058G11  C09Y72296   6.479   4.465   8.179
  1058G11  H00Y72297   6.503   4.381   8.115
  1058G11  C09X72298   6.399   4.429   8.295
  1058G11  C09W72299   6.351   4.299   8.296
  1058G11  H00R72300   6.371   4.233   8.213
  1058G11  C0AX72301   6.270   4.248   8.398
  1058G11  H00S72302   6.237   4.146   8.406
  1058G11  C0AW72303   6.231   4.344   8.497
  1058G11  H00T72304   6.156   4.312   8.568
  1058G11  C0AN72305   6.274   4.474   8.497
  1058G11  C0AO72306   6.249   4.564   8.601
  1058G11  C0AM72307   6.368   4.517   8.395
  1058G11  C0B272308   6.586   4.626   8.046
  1058G11  O00D72309   6.602   4.548   7.953
  1058G11  C0B172310   6.623   4.764   8.019
  1058G11  H00W72311   6.655   4.789   7.919
  1058G11  C0AL72312   6.428   4.649   8.390
  1058G11  C0AK72313   6.409   4.725   8.508
  1058G11  C0B072314   6.603   4.856   8.124
  1058G11  C0AZ72315   6.642   4.991   8.116
  1058G11  H00X72316   6.704   5.026   8.035
  1058G11  C0AJ72317   6.465   4.858   8.527
  1058G11  C0AH72318   6.481   5.046   8.649
  1058G11  C0AE72319   6.539   5.314   8.623
  1058G11  C0AD72320   6.570   5.451   8.617
  1058G11  C0AY72321   6.605   5.057   8.238
  1058G11  C0AB72322   6.657   5.414   8.390
  1058G11  C0AC72323   6.632   5.495   8.505
  1058G11  C0BM72324   6.589   5.662   8.731
  1058G11  C0CM72325   6.788   6.019   8.757
  1058G11  C09M72326   6.747   6.126   8.854
  1058G11  C09872327   6.793   6.260   8.830
  1058G11  C08R72328   6.782   6.383   8.910
  1058G11  C08Q72329   6.844   6.501   8.856
  1058G11  C08P72330   6.914   6.621   8.904
  1058G11  C08Y72331   7.019   6.669   8.816
  1058G11  C09772332   7.064   6.588   8.714
  1058G11  C09672333   7.195   6.597   8.694
  1058G11  C09072334   7.240   6.709   8.770
  1058G11  C09572335   7.382   6.742   8.804
  1058G11  C09472336   7.422   6.860   8.878
  1058G11  C08J72337   7.347   6.931   8.972
  1058G11  C08I72338   7.436   6.975   9.077
  1058G11  C08H72339   7.362   7.001   9.197
  1058G11  C08G72340   7.227   6.946   9.173
  1058G11  C08F72341   7.097   6.947   9.235
  1058G11  C08E72342   7.060   7.034   9.344
  1058G11  C05972343   7.137   7.153   9.379
  1058G11  C05872344   7.090   7.244   9.481
  1058G11  C05772345   7.167   7.350   9.543
  1058G11  C05672346   7.292   7.372   9.481
  1058G11  C05572347   7.329   7.307   9.364
  1058G11  C05472348   7.468   7.324   9.353
  1058G11  C05372349   7.518   7.396   9.464
  1058G11  C05272350   7.652   7.403   9.508
  1058G11  C05172351   7.761   7.345   9.424
  1058G11  C05U72352   7.754   7.258   9.310
  1058G11  C05T72353   7.643   7.195   9.252
  1058G11  C06K72354   7.687   7.155   9.121
  1058G11  H00J72355   7.619   7.134   9.040
  1058G11  C06L72356   7.827   7.169   9.108
  1058G11  H00I72357   7.885   7.137   9.023
  1058G11  C05V72358   7.867   7.231   9.231
  1058G11  C06J72359   7.992   7.278   9.262
  1058G11  H00K72360   8.063   7.265   9.182
  1058G11  C05X72361   8.009   7.350   9.382
  1058G11  C06I72362   8.138   7.391   9.424
  1058G11  H00L72363   8.219   7.386   9.353
  1058G11  C04Z72364   8.159   7.444   9.558
  1058G11  C06H72365   8.295   7.479   9.599
  1058G11  H00H72366   8.374   7.468   9.526
  1058G11  C04Y72367   8.314   7.524   9.737
  1058G11  C06G72368   8.446   7.544   9.783
  1058G11  O00972369   8.549   7.531   9.721
  1058G11  O00872370   8.457   7.594   9.915
  1058G11  C04P72371   8.351   7.609   9.999
  1058G11  C04J72372   8.364   7.640  10.139
  1058G11  C04Q72373   8.482   7.670  10.205
  1058G11  H00E72374   8.576   7.660  10.152
  1058G11  C04M72375   8.488   7.716  10.340
  1058G11  C04R72376   8.607   7.752  10.418
  1058G11  H00F72377   8.705   7.749  10.373
  1058G11  C04S72378   8.600   7.786  10.546
  1058G11  H00G72379   8.694   7.813  10.592
  1058G11  O00772380   8.481   7.784  10.611
  1058G11  C03V72381   8.366   7.743  10.544
  1058G11  C03U72382   8.244   7.746  10.614
  1058G11  O00672383   8.247   7.781  10.741
  1058G11  C03F72384   8.131   7.773  10.820
  1058G11  C03E72385   8.005   7.747  10.766
  1058G11  C03D72386   7.999   7.724  10.628
  1058G11  C03C72387   7.880   7.694  10.568
  1058G11  C03B72388   7.771   7.682  10.650
  1058G11  C03A72389   7.645   7.655  10.598
  1058G11  C03972390   7.620   7.647  10.459
  1058G11  C03872391   7.477   7.626  10.451
  1058G11  C03772392   7.428   7.629  10.585
  1058G11  C03672393   7.297   7.637  10.608
  1058G11  C02R72394   7.233   7.652  10.729
  1058G11  C03572395   7.094   7.647  10.690
  1058G11  C03R72396   7.085   7.613  10.559
  1058G11  C03S72397   6.981   7.539  10.503
  1058G11  C04972398   6.997   7.496  10.374
  1058G11  C04872399   7.123   7.522  10.316
  1058G11  C03P72400   7.241   7.570  10.377
  1058G11  C04772401   7.121   7.505  10.175
  1058G11  C04672402   7.220   7.545  10.081
  1058G11  C04572403   7.353   7.590  10.100
  1058G11  C03T72404   7.428   7.608  10.218
  1058G11  C04472405   7.557   7.643  10.177
  1058G11  C04372406   7.556   7.657  10.034
  1058G11  C04272407   7.685   7.626   9.984
  1058G11  C04172408   7.766   7.626  10.103
  1058G11  C04072409   7.907   7.612  10.106
  1058G11  C03Z72410   7.997   7.630  10.214
  1058G11  C04H72411   8.127   7.623  10.160
  1058G11  C04G72412   8.111   7.591  10.024
  1058G11  C03N72413   7.991   7.657  10.356
  1058G11  C03Y72414   8.116   7.680  10.421
  1058G11  C03X72415   8.239   7.679  10.352
  1058G11  C04F72416   7.979   7.578   9.991
  1058G11  C04E72417   7.953   7.534   9.857
  1058G11  C04O72418   8.071   7.512   9.774
  1058G11  C04D72419   7.828   7.517   9.797
  1058G11  C04V72420   7.817   7.468   9.669
  1058G11  C04W72421   7.925   7.441   9.585
  1058G11  C04C72422   7.704   7.548   9.857
  1058G11  C04L72423   7.606   7.523   9.746
  1058G11  C04U72424   7.468   7.564   9.747
  1058G11  C05Q72425   7.379   7.507   9.652
  1058G11  C05P72426   7.254   7.487   9.717
  1058G11  C04T72427   7.264   7.528   9.847
  1058G11  C04B72428   7.389   7.577   9.865
  1058G11  C03M72429   7.692   7.643  10.229
  1058G11  C04A72430   7.435   7.610   9.991
  1058G11  C05H72431   7.179   7.509   9.955
  1058G11  C05G72432   7.046   7.453   9.966
  1058G11  C05F72433   6.970   7.402   9.859
  1058G11  C05E72434   6.860   7.304   9.883
  1058G11  C05L72435   6.777   7.250   9.994
  1058G11  C05K72436   6.788   7.307  10.124
  1058G11  C05J72437   6.890   7.393  10.176
  1058G11  C06672438   6.682   7.270  10.211
  1058G11  C06572439   6.590   7.163  10.175
  1058G11  C06472440   6.596   7.102  10.052
  1058G11  C06N72441   6.482   7.130  10.258
  1058G11  C06972442   6.470   7.187  10.383
  1058G11  C06P72443   6.375   7.142  10.473
  1058G11  C06R72444   6.382   7.172  10.607
  1058G11  C06B72445   6.482   7.256  10.652
  1058G11  C06S72446   6.496   7.271  10.791
  1058G11  C02G72447   6.603   7.344  10.846
  1058G11  C02F72448   6.622   7.359  10.981
  1058G11  C02772449   6.539   7.296  11.069
  1058G11  C02672450   6.558   7.301  11.206
  1058G11  C00E72451   6.473   7.239  11.294
  1058G11  C00D72452   6.503   7.242  11.427
  1058G11  C00C72453   6.423   7.175  11.511
  1058G11  C00B72454   6.318   7.098  11.471
  1058G11  C01572455   6.289   7.097  11.337
  1058G11  C07F72456   6.185   7.019  11.292
  1058G11  C07E72457   6.159   7.010  11.154
  1058G11  C06W72458   6.237   7.083  11.067
  1058G11  C06V72459   6.343   7.163  11.113
  1058G11  C06X72460   6.217   7.074  10.928
  1058G11  C07B72461   6.116   6.994  10.880
  1058G11  C07C72462   6.034   6.925  10.972
  1058G11  C0FU72463   5.929   6.846  10.926
  1058G11  C0F772464   5.852   6.772  11.014
  1058G11  C0F672465   5.756   6.685  10.968
  1058G11  C0F872466   5.682   6.605  11.058
  1058G11  C0F972467   5.596   6.508  11.014
  1058G11  C0FA72468   5.527   6.433  11.108
  1058G11  C0FZ72469   5.543   6.456  11.242
  1058G11  C0G072470   5.480   6.369  11.334
  1058G11  C0GD72471   5.400   6.257  11.296
  1058G11  C0FC72472   5.389   6.235  11.159
  1058G11  C0GH72473   5.321   6.125  11.117
  1058G11  C0EY72474   5.301   6.112  10.981
  1058G11  C0EX72475   5.236   6.002  10.931
  1058G11  C0EW72476   5.207   5.992  10.794
  1058G11  C0FR72477   5.155   5.866  10.741
  1058G11  H01D72478   5.133   5.848  10.637
  1058G11  C0FS72479   5.136   5.758  10.826
  1058G11  H01C72480   5.096   5.661  10.798
  1058G11  C0GJ72481   5.167   5.771  10.960
  1058G11  H01N72482   5.150   5.686  11.025
  1058G11  C0EV72483   5.219   6.105  10.710
  1058G11  C0FT72484   5.181   6.101  10.573
  1058G11  H01E72485   5.134   6.020  10.519
  1058G11  C0EU72486   5.309   6.203  10.756
  1058G11  C0ET72487   5.371   6.291  10.672
  1058G11  C0EI72488   5.478   6.368  10.702
  1058G11  C0F172489   5.502   6.391  10.836
  1058G11  C0F072490   5.432   6.316  10.930
  1058G11  C0EH72491   5.557   6.431  10.605
  1058G11  C0EG72492   5.551   6.395  10.467
  1058G11  C0EJ72493   5.652   6.529  10.645
  1058G11  C0F372494   5.664   6.558  10.784
  1058G11  C0EK72495   5.730   6.600  10.551
  1058G11  C0EL72496   5.729   6.562  10.412
  1058G11  C0EM72497   5.825   6.639  10.331
  1058G11  C0EN72498   5.888   6.745  10.393
  1058G11  C07I72499   5.989   6.792  10.309
  1058G11  C07472500   6.087   6.884  10.347
  1058G11  C07372501   6.187   6.911  10.256
  1058G11  C07272502   6.274   7.007  10.295
  1058G11  C07572503   6.081   6.923  10.476
  1058G11  C07672504   5.984   6.864  10.566
  1058G11  C07872505   6.001   6.888  10.699
  1058G11  C07G72506   6.175   7.013  10.516
  1058G11  C07072507   6.182   7.041  10.653
  1058G11  C07Z72508   5.988   6.726  10.186
  1058G11  C07772509   5.893   6.773  10.526
  1058G11  C0EO72510   5.816   6.693  10.606
  1058G11  C0F472511   5.823   6.728  10.741
  1058G11  C0EQ72512   5.340   6.279  10.539
  1058G11  C0FQ72513   5.206   5.894  11.014
  1058G11  C0GI72514   5.230   5.911  11.150
  1058G11  H01L72515   5.198   5.833  11.217
  1058G11  C0EZ72516   5.349   6.211  10.889
  1058G11  C0GG72517   5.275   6.026  11.208
  1058G11  C0GF72518   5.283   6.048  11.345
  1058G11  H01M72519   5.252   5.973  11.416
  1058G11  C0GE72520   5.339   6.169  11.390
  1058G11  H01K72521   5.346   6.192  11.495
  1058G11  O00J72522   5.493   6.389  11.469
  1058G11  C0GA72523   5.567   6.493  11.510
  1058G11  C0G972524   5.561   6.532  11.647
  1058G11  H01H72525   5.489   6.494  11.718
  1058G11  C0G872526   5.660   6.614  11.697
  1058G11  C0G772527   5.679   6.644  11.836
  1058G11  H01I72528   5.605   6.609  11.907
  1058G11  O00I72529   5.796   6.697  11.884
  1058G11  C0G672530   5.864   6.774  11.796
  1058G11  H01J72531   5.920   6.853  11.843
  1058G11  C02D72532   5.860   6.747  11.661
  1058G11  C02C72533   5.942   6.814  11.571
  1058G11  C01772534   6.062   6.879  11.612
  1058G11  C01672535   6.141   6.950  11.522
  1058G11  O00172536   6.103   6.868  11.743
  1058G11  C01872537   6.214   6.927  11.791
  1058G11  C00972538   6.291   7.010  11.703
  1058G11  C00872539   6.402   7.094  11.737
  1058G11  C00772540   6.496   7.093  11.849
  1058G11  C00672541   6.478   7.008  11.959
  1058G11  C00572542   6.579   7.006  12.060
  1058G11  C00472543   6.716   7.059  12.062
  1058G11  C00372544   6.793   7.152  11.978
  1058G11  C00272545   6.932   7.179  12.016
  1058G11  C00P72546   7.014   7.250  11.930
  1058G11  C00O72547   7.151   7.278  11.953
  1058G11  C00N72548   7.232   7.349  11.869
  1058G11  C01072549   7.371   7.354  11.890
  1058G11  C01172550   7.457   7.411  11.793
  1058G11  C01Q72551   7.590   7.387  11.803
  1058G11  C01U72552   7.647   7.327  11.913
  1058G11  C01272553   7.563   7.296  12.019
  1058G11  H00072554   7.607   7.258  12.109
  1058G11  C01V72555   7.787   7.308  11.906
  1058G11  H00772556   7.837   7.255  11.987
  1058G11  O00572557   7.873   7.344  11.801
  1058G11  C01W72558   7.812   7.395  11.691
  1058G11  C03172559   7.891   7.409  11.579
  1058G11  C03272560   7.839   7.456  11.456
  1058G11  H00A72561   7.896   7.468  11.366
  1058G11  C03372562   7.701   7.480  11.452
  1058G11  H00B72563   7.666   7.504  11.353
  1058G11  C01O72564   7.617   7.474  11.572
  1058G11  C01N72565   7.486   7.510  11.572
  1058G11  C01M72566   7.420   7.589  11.463
  1058G11  C01L72567   7.450   7.647  11.326
  1058G11  C01K72568   7.327   7.685  11.269
  1058G11  C01Y72569   7.308   7.679  11.126
  1058G11  C02I72570   7.421   7.677  11.045
  1058G11  C02N72571   7.406   7.666  10.904
  1058G11  C02M72572   7.529   7.661  10.826
  1058G11  C02L72573   7.654   7.688  10.875
  1058G11  C02K72574   7.665   7.698  11.017
  1058G11  C02U72575   7.792   7.735  11.068
  1058G11  C02V72576   7.901   7.749  10.983
  1058G11  C03H72577   8.035   7.761  11.037
  1058G11  H00C72578   8.056   7.754  11.142
  1058G11  C02W72579   7.805   7.770  11.203
  1058G11  C02X72580   7.692   7.744  11.279
  1058G11  C02Y72581   7.740   7.781  11.405
  1058G11  H00872582   7.695   7.786  11.503
  1058G11  C02Z72583   7.864   7.856  11.388
  1058G11  O00472584   7.926   7.924  11.472
  1058G11  O00372585   7.901   7.841  11.264
  1058G11  C02J72586   7.547   7.690  11.101
  1058G11  C01Z72587   7.179   7.649  11.083
  1058G11  C02072588   7.080   7.614  11.173
  1058G11  C01I72589   7.096   7.613  11.309
  1058G11  C01H72590   7.021   7.543  11.400
  1058G11  C00K72591   7.069   7.509  11.527
  1058G11  C01S72592   7.200   7.539  11.568
  1058G11  C01472593   7.263   7.480  11.672
  1058G11  C00J72594   6.989   7.434  11.614
  1058G11  C00I72595   6.868   7.389  11.566
  1058G11  C00H72596   6.825   7.416  11.434
  1058G11  C00G72597   6.708   7.360  11.385
  1058G11  C00S72598   6.790   7.316  11.652
  1058G11  C00T72599   6.668   7.289  11.598
  1058G11  C00U72600   6.580   7.229  11.689
  1058G11  C00R72601   6.834   7.274  11.777
  1058G11  C00L72602   7.043   7.386  11.731
  1058G11  C02872603   6.903   7.492  11.350
  1058G11  C02372604   6.869   7.508  11.216
  1058G11  C02472605   6.758   7.438  11.167
  1058G11  C02172606   6.959   7.562  11.125
  1058G11  C02272607   6.934   7.561  10.987
  1058G11  C02H72608   6.818   7.496  10.941
  1058G11  C03072609   6.793   7.477  10.804
  1058G11  C03472610   6.889   7.527  10.714
  1058G11  C02P72611   7.032   7.597  10.905
  1058G11  C02B72612   7.161   7.633  10.948
  1058G11  C01J72613   7.223   7.651  11.353
  1058G11  C01X72614   7.564   7.686  11.246
  1058G11  C01T72615   7.279   7.606  11.474
  1058G11  H00972616   7.998   7.395  11.586
  1058G11  C01P72617   7.672   7.419  11.687
  1058G11  C01R72618   7.406   7.472  11.681
  1058G11  C00Z72619   7.423   7.289  12.002
  1058G11  O00072620   7.340   7.246  12.104
  1058G11  C00M72621   7.177   7.406  11.758
  1058G11  C00Y72622   7.205   7.229  12.076
  1058G11  C01372623   7.128   7.150  12.155
  1058G11  H00172624   7.172   7.106  12.244
  1058G11  C00Q72625   6.964   7.304  11.813
  1058G11  C00172626   6.992   7.125  12.134
  1058G11  C00072627   6.908   7.048  12.214
  1058G11  H00672628   6.950   7.014  12.308
  1058G11  C00W72629   6.752   7.202  11.858
  1058G11  C01G72630   6.785   7.011  12.175
  1058G11  H00572631   6.746   6.947  12.252
  1058G11  C01C72632   6.514   6.938  12.168
  1058G11  H00272633   6.544   6.903  12.265
  1058G11  C01B72634   6.378   6.900  12.126
  1058G11  C01D72635   6.276   6.832  12.201
  1058G11  H00372636   6.297   6.791  12.299
  1058G11  C01E72637   6.159   6.813  12.136
  1058G11  H00472638   6.092   6.750  12.192
  1058G11  O00272639   6.133   6.849  12.006
  1058G11  C01A72640   6.359   6.944  11.993
  1058G11  C00V72641   6.611   7.178  11.813
  1058G11  C01972642   6.233   6.917  11.932
  1058G11  C02E72643   5.918   6.806  11.431
  1058G11  C0FX72644   5.816   6.726  11.381
  1058G11  C0FW72645   5.797   6.712  11.242
  1058G11  C0GB72646   5.739   6.658  11.469
  1058G11  C0G372647   5.998   6.874  11.343
  1058G11  C07H72648   5.973   6.864  11.204
  1058G11  C0GC72649   5.756   6.671  11.611
  1058G11  C0G272650   5.651   6.563  11.421
  1058G11  C0G172651   5.638   6.545  11.285
  1058G11  C0FB72652   5.447   6.329  11.067
  1058G11  C0F272653   5.589   6.485  10.878
  1058G11  C0FY72654   5.708   6.618  11.191
  1058G11  C0F572655   5.746   6.658  10.832
  1058G11  C0FV72656   5.874   6.783  11.150
  1058G11  C07972657   5.918   6.822  10.791
  1058G11  C07A72658   6.100   6.980  10.741
  1058G11  C06Y72659   6.304   7.140  10.836
  1058G11  C07D72660   6.052   6.937  11.111
  1058G11  C01F72661   6.107   6.953  11.381
  1058G11  C00A72662   6.247   7.023  11.571
  1058G11  C00X72663   6.463   7.169  11.644
  1058G11  C00F72664   6.621   7.298  11.469
  1058G11  C02972665   6.363   7.172  11.248
  1058G11  C02572666   6.674   7.369  11.254
  1058G11  C06U72667   6.432   7.222  11.021
  1058G11  C02A72668   6.732   7.428  11.030
  1058G11  C05Y72669   6.682   7.408  10.751
  1058G11  C05Z72670   6.669   7.392  10.611
  1058G11  C06072671   6.773   7.434  10.527
  1058G11  C06272672   6.779   7.396  10.392
  1058G11  C06T72673   6.411   7.211  10.883
  1058G11  C06A72674   6.574   7.304  10.561
  1058G11  C06Z72675   6.288   7.120  10.698
  1058G11  C06Q72676   6.275   7.060  10.429
  1058G11  C06872677   6.566   7.279  10.426
  1058G11  C06772678   6.672   7.321  10.338
  1058G11  C06372679   6.691   7.148   9.960
  1058G11  C06C72680   6.695   7.083   9.836
  1058G11  C06D72681   6.783   7.118   9.734
  1058G11  C06E72682   6.804   7.053   9.614
  1058G11  C07Q72683   6.726   6.944   9.588
  1058G11  C07P72684   6.631   6.906   9.683
  1058G11  C07T72685   6.556   6.797   9.656
  1058G11  C07U72686   6.455   6.757   9.744
  1058G11  C07V72687   6.376   6.649   9.716
  1058G11  C08472688   6.404   6.570   9.604
  1058G11  C08C72689   6.504   6.605   9.518
  1058G11  C08B72690   6.526   6.534   9.404
  1058G11  C08A72691   6.621   6.583   9.314
  1058G11  C08972692   6.701   6.691   9.335
  1058G11  C08872693   6.803   6.721   9.246
  1058G11  C08772694   6.888   6.827   9.273
  1058G11  C08672695   6.859   6.907   9.388
  1058G11  C08X72696   6.824   6.645   9.131
  1058G11  C08T72697   6.755   6.513   9.123
  1058G11  C08D72698   6.673   6.765   9.446
  1058G11  C08U72699   6.645   6.499   9.210
  1058G11  C08V72700   6.601   6.369   9.208
  1058G11  C0CY72701   6.496   6.328   9.283
  1058G11  C0CX72702   6.435   6.208   9.257
  1058G11  C0CW72703   6.331   6.172   9.341
  1058G11  C0CV72704   6.295   6.256   9.449
  1058G11  C0D472705   6.364   6.374   9.471
  1058G11  C0CU72706   6.202   6.210   9.538
  1058G11  C0CT72707   6.132   6.092   9.526
  1058G11  C0CS72708   6.179   6.007   9.429
  1058G11  C0D672709   6.175   6.296   9.638
  1058G11  C0EC72710   6.232   6.422   9.661
  1058G11  C07X72711   6.188   6.507   9.763
  1058G11  C0DL72712   6.058   6.275   9.709
  1058G11  C0DK72713   6.015   6.365   9.803
  1058G11  C0DN72714   5.905   6.309   9.857
  1058G11  C0D872715   5.980   6.157   9.699
  1058G11  C08W72716   6.657   6.300   9.101
  1058G11  C0CQ72717   6.596   6.167   9.071
  1058G11  C09372718   6.454   6.415   9.384
  1058G11  C09272719   6.331   6.455   9.574
  1058G11  C08572720   6.578   6.724   9.538
  1058G11  C07S72721   6.752   6.871   9.475
  1058G11  C06F72722   6.905   7.094   9.524
  1058G11  C07O72723   6.613   6.975   9.805
  1058G11  C07N72724   6.520   6.929   9.894
  1058G11  C05D72725   6.860   7.227   9.763
  1058G11  C05C72726   6.946   7.275   9.668
  1058G11  C05N72727   7.020   7.379   9.724
  1058G11  C05M72728   7.008   7.447  10.105
  1058G11  C05I72729   6.891   7.428  10.315
  1058G11  C06172730   6.877   7.505  10.582
  1058G11  C02Q72731   6.996   7.594  10.773
  1058G11  C02O72732   7.273   7.656  10.862
  1058G11  C03Q72733   7.209   7.610  10.507
  1058G11  C03O72734   7.382   7.591  10.344
  1058G11  C03L72735   7.731   7.651  10.365
  1058G11  C02S72736   7.526   7.644  10.680
  1058G11  C02T72737   7.768   7.697  10.791
  1058G11  C03K72738   7.866   7.672  10.424
  1058G11  C03I72739   7.891   7.738  10.843
  1058G11  C03G72740   8.141   7.775  10.959
  1058G11  H00D72741   8.236   7.781  11.011
  1058G11  C03J72742   8.118   7.724  10.552
  1058G11  C03W72743   8.363   7.717  10.408
  1058G11  C04I72744   8.251   7.646  10.221
  1058G11  C04K72745   8.226   7.583   9.950
  1058G11  C04N72746   8.204   7.537   9.824
  1058G11  C04X72747   8.051   7.466   9.637
  1058G11  C05072748   7.894   7.378   9.463
  1058G11  C05W72749   7.683   7.461   9.634
  1058G11  C05S72750   7.509   7.199   9.300
  1058G11  C05R72751   7.402   7.437   9.537
  1058G11  C05O72752   7.143   7.413   9.668
  1058G11  C05B72753   6.978   7.201   9.549
  1058G11  C05A72754   7.273   7.186   9.333
  1058G11  C07R72755   6.935   7.016   9.414
  1058G11  C08N72756   7.003   6.852   9.190
  1058G11  C08M72757   7.016   6.778   9.068
  1058G11  C08L72758   7.120   6.811   8.987
  1058G11  C09172759   7.384   7.118   9.275
  1058G11  C09K72760   7.559   6.895   9.057
  1058G11  H00M72761   7.626   6.870   9.138
  1058G11  C08K72762   7.227   6.890   9.041
  1058G11  C09J72763   7.553   6.846   8.923
  1058G11  C09I72764   7.606   6.729   8.857
  1058G11  C09L72765   7.742   6.685   8.836
  1058G11  H00N72766   7.818   6.748   8.878
  1058G11  C09Q72767   7.753   6.580   8.750
  1058G11  H00O72768   7.854   6.545   8.736
  1058G11  O00B72769   7.653   6.507   8.691
  1058G11  C09G72770   7.522   6.554   8.702
  1058G11  C09F72771   7.425   6.467   8.638
  1058G11  O00A72772   7.484   6.376   8.553
  1058G11  C09P72773   7.395   6.314   8.463
  1058G11  H00P72774   7.382   6.358   8.365
  1058G11  C09O72775   7.267   6.284   8.513
  1058G11  C09D72776   7.200   6.379   8.584
  1058G11  C09C72777   7.061   6.372   8.629
  1058G11  C09N72778   6.975   6.261   8.651
  1058G11  C09T72779   7.003   6.128   8.629
  1058G11  C09S72780   7.107   6.085   8.541
  1058G11  C0CP72781   7.077   5.949   8.520
  1058G11  C0CN72782   6.969   5.901   8.596
  1058G11  C0CO72783   6.951   5.764   8.580
  1058G11  H01472784   6.887   5.704   8.644
  1058G11  C0CZ72785   7.014   5.700   8.473
  1058G11  H01572786   6.993   5.595   8.456
  1058G11  C0D072787   7.110   5.755   8.388
  1058G11  C0G572788   7.170   5.698   8.270
  1058G11  H01F72789   7.150   5.598   8.234
  1058G11  C0G472790   7.263   5.764   8.199
  1058G11  H01G72791   7.321   5.719   8.119
  1058G11  O00H72792   7.305   5.887   8.231
  1058G11  C0D272793   7.242   5.945   8.335
  1058G11  C09V72794   7.281   6.075   8.371
  1058G11  H00Q72795   7.358   6.118   8.309
  1058G11  C0D172796   7.146   5.887   8.414
  1058G11  C09R72797   7.215   6.149   8.481
  1058G11  C09H72798   7.498   6.670   8.783
  1058G11  C09E72799   7.281   6.487   8.638
  1058G11  C09B72800   6.997   6.478   8.682
  1058G11  C08Z72801   7.129   6.744   8.855
  1058G11  C08O72802   6.917   6.680   9.033
  1058G11  C09A72803   6.865   6.457   8.721
  1058G11  C08S72804   6.746   6.391   9.043
  1058G11  C09972805   6.850   6.315   8.708
  1058G11  C09U72806   6.911   6.014   8.665
  1058G11  C0BO72807   6.559   5.748   8.836
  1058G11  C0CL72808   6.647   6.092   8.959
  1058G11  C0D372809   6.486   6.124   9.157
  1058G11  C0D572810   6.275   6.049   9.329
  1058G11  C0BR72811   6.419   5.794   9.028
  1058G11  C0BQ72812   6.462   5.707   8.928
  1058G11  C0BL72813   6.539   5.531   8.728
  1058G11  C0AF72814   6.471   5.265   8.735
  1058G11  C0BH72815   6.279   5.398   9.020
  1058G11  C0BG72816   6.182   5.353   9.108
  1058G11  C0BD72817   6.200   5.130   9.022
  1058G11  C0AG72818   6.444   5.131   8.754
  1058G11  C0AI72819   6.443   4.916   8.651
  1058G11  C0AV72820   6.329   4.677   8.609
  1058G11  C0BB72821   6.213   4.772   8.951
  1058G11  O00C72822   6.149   4.532   8.698
  1058G11  C0BC72823   6.108   4.713   9.016
  1058G11  C0B972824   6.167   4.992   9.032
  1058G11  O00E72825   5.868   5.018   9.240
  1058G11  C0CA72826   5.807   5.093   9.329
  1058G11  O00F72827   5.707   5.056   9.384
  1058G11  C0BF72828   6.139   5.223   9.108
  1058G11  C0C572829   5.867   5.223   9.351
  1058G11  C0C472830   5.818   5.306   9.456
  1058G11  H01172831   5.742   5.271   9.523
  1058G11  C0C872832   6.124   5.440   9.197
  1058G11  C0C272833   5.869   5.439   9.462
  1058G11  C0C372834   5.837   5.527   9.571
  1058G11  C0DY72835   5.740   5.501   9.663
  1058G11  H01672836   5.692   5.409   9.691
  1058G11  C0DX72837   5.735   5.630   9.735
  1058G11  C0DW72838   5.659   5.632   9.851
  1058G11  C0BY72839   6.119   5.664   9.297
  1058G11  C0DB72840   5.885   5.659   9.582
  1058G11  C0CC72841   6.120   5.880   9.411
  1058G11  C0D772842   6.026   6.052   9.607
  1058G11  C0DZ72843   5.818   5.738   9.679
  1058G11  C0DM72844   5.874   6.179   9.795
  1058G11  C0DQ72845   5.683   5.885   9.896
  1058G11  C0DV72846   5.640   5.752   9.919
  1058G11  C0E072847   5.584   5.524   9.923
  1058G11  C0FO72848   5.297   5.583  10.111
  1058G11  C0E372849   5.480   5.434   9.873
  1058G11  H01772850   5.466   5.393   9.774
  1058G11  C0GV72851   5.192   5.502  10.064
  1058G11  C0ES72852   5.276   5.719  10.155
  1058G11  C0GQ72853   4.908   5.700  10.146
  1058G11  C0FJ72854   4.929   6.053  10.257
  1058G11  C0ED72855   5.207   5.990  10.228
  1058G11  C0ER72856   5.243   6.195  10.490
  1058G11  C0EP72857   5.432   6.315  10.435
  1058G11  C0E672858   5.454   6.040  10.173
  1058G11  C0DE72859   5.680   6.222  10.064
  1058G11  C0EA72860   5.647   6.450  10.373
  1058G11  C0DF72861   5.734   6.348  10.031
  1058G11  C08072862   5.876   6.634  10.201
  1058G11  C0DO72863   5.854   6.379   9.964
  1058G11  C0DJ72864   6.089   6.477   9.846
  1058G11  C07K72865   6.104   6.742  10.099
  1058G11  C07W72866   6.271   6.615   9.794
  1058G11  C08372867   6.432   6.827   9.860
  1058G11  C07J72868   6.197   6.841  10.137
  1058G11  C06O72869   6.385   7.035  10.213
  1058G11  C06M72870   6.507   6.998  10.012
  1068G11  C07172871   7.717   3.340  10.442
  1068G11  C07L72872   7.815   3.306  10.343
  1068G11  C07M72873   7.904   3.199  10.363
  1068G11  C07Y72874   7.997   3.164  10.266
  1068G11  C08172875   8.007   3.236  10.144
  1068G11  C08272876   8.106   3.187  10.051
  1068G11  C0DI72877   8.128   3.225   9.908
  1068G11  C0DH72878   8.073   3.329   9.826
  1068G11  C0DG72879   8.121   3.321   9.693
  1068G11  C0E972880   8.157   3.425   9.596
  1068G11  C0E872881   8.271   3.359   9.526
  1068G11  C0E772882   8.321   3.385   9.392
  1068G11  C0EB72883   8.251   3.484   9.307
  1068G11  C0EF72884   8.251   3.488   9.159
  1068G11  C0EE72885   8.271   3.382   9.072
  1068G11  C0FD72886   8.175   3.347   8.971
  1068G11  C0FE72887   8.044   3.392   8.966
  1068G11  H01B72888   7.998   3.455   9.040
  1068G11  C0FF72889   7.949   3.351   8.868
  1068G11  H01A72890   7.849   3.393   8.864
  1068G11  C0FG72891   7.993   3.265   8.764
  1068G11  H01872892   7.925   3.223   8.691
  1068G11  C0FH72893   8.130   3.221   8.767
  1068G11  C0FI72894   8.188   3.132   8.668
  1068G11  H01972895   8.134   3.098   8.581
  1068G11  O00K72896   8.312   3.078   8.666
  1068G11  C0FL72897   8.397   3.120   8.768
  1068G11  C0FK72898   8.357   3.212   8.870
  1068G11  C0FM72899   8.445   3.246   8.974
  1068G11  C0FN72900   8.574   3.192   8.968
  1068G11  C0FP72901   8.617   3.103   8.862
  1068G11  C0GO72902   8.740   3.043   8.864
  1068G11  C0GN72903   8.779   2.943   8.778
  1068G11  C0GR72904   8.685   2.914   8.676
  1068G11  C0GS72905   8.712   2.811   8.584
  1068G11  H01Q72906   8.644   2.786   8.504
  1068G11  C0GT72907   8.834   2.740   8.594
  1068G11  H01O72908   8.856   2.657   8.529
  1068G11  C0GU72909   8.925   2.770   8.697
  1068G11  H01P72910   9.013   2.708   8.697
  1068G11  O00L72911   8.562   2.976   8.677
  1068G11  C0GM72912   8.898   2.869   8.798
  1068G11  C0GL72913   8.983   2.903   8.907
  1068G11  H01R72914   9.071   2.843   8.922
  1068G11  C0GK72915   8.953   3.017   8.984
  1068G11  C0GP72916   9.002   3.081   9.101
  1068G11  C0E272917   8.917   3.193   9.133
  1068G11  C0E172918   8.897   3.191   9.273
  1068G11  C0DU72919   8.772   3.198   9.341
  1068G11  C0DT72920   8.652   3.251   9.304
  1068G11  C0E472921   8.610   3.272   9.177
  1068G11  C0E572922   8.484   3.325   9.190
  1068G11  C0DS72923   8.548   3.256   9.395
  1068G11  C0DR72924   8.560   3.189   9.517
  1068G11  C0DD72925   8.458   3.175   9.613
  1068G11  C0DC72926   8.515   3.073   9.704
  1068G11  C0DP72927   8.645   3.029   9.673
  1068G11  C0DA72928   8.737   2.943   9.748
  1068G11  C0D972929   8.719   2.870   9.878
  1068G11  C0CR72930   8.822   2.775   9.928
  1068G11  C0C072931   8.942   2.759   9.864
  1068G11  C0BZ72932   9.046   2.681   9.908
  1068G11  C0C172933   9.169   2.677   9.837
  1068G11  C0C772934   9.274   2.591   9.879
  1068G11  C0C672935   9.400   2.590   9.814
  1068G11  C0C972936   9.497   2.507   9.858
  1068G11  C0B872937   9.619   2.502   9.788
  1068G11  C0B772938   9.716   2.405   9.823
  1068G11  C0B672939   9.842   2.374   9.762
  1068G11  C0B572940   9.856   2.372   9.621
  1068G11  H00Z72941   9.794   2.428   9.551
  1068G11  C0B472942   9.953   2.270   9.592
  1068G11  H01072943   9.969   2.226   9.494
  1068G11  C0B372944   9.994   2.212   9.711
  1068G11  C0AP72945  10.011   2.074   9.762
  1068G11  C0AQ72946   9.961   2.083   9.891
  1068G11  C0AR72947   9.908   1.969   9.959
  1068G11  C0AS72948   9.814   2.005  10.050
  1068G11  C0AT72949   9.747   2.125  10.068
  1068G11  C0BA72950   9.777   2.227   9.983
  1068G11  C0AU72951   9.631   2.135  10.141
  1068G11  C0BE72952   9.543   2.238  10.112
  1068G11  C0BI72953   9.419   2.238  10.170
  1068G11  C0BJ72954   9.386   2.131  10.254
  1068G11  C0BK72955   9.266   2.133  10.320
  1068G11  C0BW72956   9.174   2.237  10.304
  1068G11  C0BV72957   9.205   2.338  10.209
  1068G11  C0BU72958   9.109   2.431  10.169
  1068G11  C0BX72959   9.129   2.513  10.062
  1068G11  C0BT72960   8.989   2.436  10.242
  1068G11  C0CD72961   8.891   2.532  10.204
  1068G11  C0CB72962   8.907   2.610  10.087
  1068G11  C0CE72963   8.787   2.547  10.289
  1068G11  C0CK72964   8.775   2.471  10.402
  1068G11  C0BS72965   8.861   2.367  10.439
  1068G11  C0CJ72966   8.846   2.290  10.555
  1068G11  C0BP72967   8.934   2.182  10.570
  1068G11  C0CI72968   8.907   2.085  10.671
  1068G11  C0CH72969   8.997   1.972  10.682
  1068G11  H01272970   8.983   1.915  10.772
  1068G11  C0BN72971   9.098   1.945  10.586
  1068G11  C0CG72972   9.167   1.825  10.583
  1068G11  C0CF72973   9.138   1.718  10.670
  1068G11  H01372974   9.065   1.725  10.749
  1068G11  O00G72975   9.197   1.596  10.651
  1068G11  C0AA72976   9.301   1.583  10.559
  1068G11  C0A972977   9.371   1.456  10.552
  1068G11  H00U72978   9.344   1.387  10.631
  1068G11  C0A872979   9.473   1.435  10.460
  1068G11  H00V72980   9.526   1.342  10.470
  1068G11  C0A772981   9.508   1.540  10.369
  1068G11  C0A672982   9.451   1.668  10.391
  1068G11  C0A572983   9.490   1.781  10.324
  1068G11  C0A472984   9.618   1.787  10.248
  1068G11  C0A372985   9.712   1.691  10.196
  1068G11  C0A272986   9.667   1.561  10.163
  1068G11  C0A172987   9.723   1.474  10.071
  1068G11  C0A072988   9.804   1.485   9.950
  1068G11  C09Z72989   9.816   1.362   9.881
  1068G11  C09Y72990   9.886   1.355   9.752
  1068G11  H00Y72991   9.906   1.262   9.701
  1068G11  C09X72992   9.931   1.476   9.696
  1068G11  C09W72993   9.983   1.467   9.568
  1068G11  H00R72994   9.985   1.368   9.526
  1068G11  C0AX72995  10.020   1.585   9.494
  1068G11  H00S72996  10.047   1.576   9.389
  1068G11  C0AW72997  10.002   1.707   9.563
  1068G11  H00T72998  10.035   1.797   9.514
  1068G11  C0AN72999   9.970   1.715   9.701
  1068G11  C0AO73000   9.974   1.836   9.772
  1068G11  C0AM73001   9.928   1.596   9.766
  1068G11  C0B273002   9.768   1.232   9.921
  1068G11  O00D73003   9.778   1.126   9.855
  1068G11  C0B173004   9.697   1.229  10.044
  1068G11  H00W73005   9.680   1.131  10.087
  1068G11  C0AL73006   9.870   1.604   9.901
  1068G11  C0AK73007   9.867   1.728   9.963
  1068G11  C0B073008   9.671   1.349  10.107
  1068G11  C0AZ73009   9.587   1.357  10.218
  1068G11  H00X73010   9.542   1.274  10.272
  1068G11  C0AJ73011   9.795   1.760  10.091
  1068G11  C0AH73012   9.666   1.912  10.216
  1068G11  C0AE73013   9.425   1.909  10.338
  1068G11  C0AD73014   9.309   1.912  10.408
  1068G11  C0AY73015   9.577   1.493  10.249
  1068G11  C0AB73016   9.348   1.689  10.480
  1068G11  C0AC73017   9.274   1.809  10.493
  1068G11  C0BM73018   9.114   2.039  10.485
  1068G11  C0CM73019   8.796   2.107  10.759
  1068G11  C09M73020   8.735   2.235  10.766
  1068G11  C09873021   8.677   2.273  10.890
  1068G11  C08R73022   8.593   2.386  10.932
  1068G11  C08Q73023   8.561   2.400  11.068
  1068G11  C08P73024   8.446   2.444  11.152
  1068G11  C08Y73025   8.431   2.372  11.271
  1068G11  C09773026   8.495   2.246  11.292
  1068G11  C09673027   8.404   2.160  11.342
  1068G11  C09073028   8.301   2.237  11.396
  1068G11  C09573029   8.199   2.202  11.478
  1068G11  C09473030   8.127   2.291  11.565
  1068G11  C08J73031   8.109   2.433  11.555
  1068G11  C08I73032   7.976   2.467  11.596
  1068G11  C08H73033   7.929   2.588  11.519
  1068G11  C08G73034   8.008   2.587  11.396
  1068G11  C08F73035   7.994   2.643  11.260
  1068G11  C08E73036   7.879   2.724  11.225
  1068G11  C05973037   7.764   2.754  11.306
  1068G11  C05873038   7.658   2.839  11.260
  1068G11  C05773039   7.557   2.898  11.337
  1068G11  C05673040   7.552   2.857  11.473
  1068G11  C05573041   7.618   2.749  11.517
  1068G11  C05473042   7.635   2.768  11.661
  1068G11  C05373043   7.562   2.888  11.703
  1068G11  C05273044   7.571   2.968  11.818
  1068G11  C05173045   7.670   2.943  11.924
  1068G11  C05U73046   7.787   2.851  11.914
  1068G11  C05T73047   7.838   2.766  11.811
  1068G11  C06K73048   7.952   2.703  11.863
  1068G11  H00J73049   8.012   2.638  11.800
  1068G11  C06L73050   7.973   2.747  11.998
  1068G11  H00I73051   8.062   2.728  12.056
  1068G11  C05V73052   7.874   2.841  12.028
  1068G11  C06J73053   7.861   2.911  12.143
  1068G11  H00K73054   7.931   2.887  12.222
  1068G11  C05X73055   7.755   2.996  12.156
  1068G11  C06I73056   7.738   3.066  12.276
  1068G11  H00L73057   7.818   3.060  12.348
  1068G11  C04Z73058   7.643   3.168  12.293
  1068G11  C06H73059   7.628   3.243  12.416
  1068G11  H00H73060   7.688   3.219  12.503
  1068G11  C04Y73061   7.543   3.352  12.415
  1068G11  C06G73062   7.529   3.428  12.542
  1068G11  O00973063   7.585   3.400  12.648
  1068G11  O00873064   7.450   3.540  12.531
  1068G11  C04P73065   7.395   3.588  12.419
  1068G11  C04J73066   7.330   3.715  12.407
  1068G11  C04Q73067   7.322   3.813  12.505
  1068G11  H00E73068   7.352   3.789  12.606
  1068G11  C04M73069   7.267   3.940  12.484
  1068G11  C04R73070   7.250   4.037  12.588
  1068G11  H00F73071   7.267   4.011  12.691
  1068G11  C04S73072   7.202   4.154  12.555
  1068G11  H00G73073   7.179   4.221  12.637
  1068G11  O00773074   7.170   4.198  12.430
  1068G11  C03V73075   7.169   4.096  12.329
  1068G11  C03U73076   7.127   4.126  12.201
  1068G11  O00673077   7.089   4.254  12.187
  1068G11  C03F73078   7.034   4.296  12.067
  1068G11  C03E73079   7.029   4.200  11.960
  1068G11  C03D73080   7.068   4.065  11.973
  1068G11  C03C73081   7.077   3.976  11.866
  1068G11  C03B73082   7.040   4.033  11.748
  1068G11  C03A73083   7.047   3.947  11.637
  1068G11  C03973084   7.087   3.813  11.645
  1068G11  C03873085   7.082   3.771  11.508
  1068G11  C03773086   7.013   3.875  11.441
  1068G11  C03673087   6.982   3.867  11.306
  1068G11  C02R73088   6.958   3.968  11.219
  1068G11  C03573089   6.991   3.913  11.096
  1068G11  C03R73090   7.028   3.779  11.098
  1068G11  C03S73091   7.121   3.728  11.008
  1068G11  C04973092   7.195   3.625  11.048
  1068G11  C04873093   7.184   3.586  11.183
  1068G11  C03P73094   7.118   3.661  11.292
  1068G11  C04773095   7.250   3.464  11.204
  1068G11  C04673096   7.254   3.389  11.320
  1068G11  C04573097   7.210   3.427  11.450
  1068G11  C03T73098   7.158   3.542  11.502
  1068G11  C04473099   7.151   3.522  11.641
  1068G11  C04373100   7.178   3.385  11.671
  1068G11  C04273101   7.249   3.381  11.792
  1068G11  C04173102   7.233   3.519  11.839
  1068G11  C04073103   7.289   3.569  11.965
  1068G11  C03Z73104   7.252   3.688  12.041
  1068G11  C04H73105   7.296   3.672  12.170
  1068G11  C04G73106   7.356   3.552  12.185
  1068G11  C03N73107   7.179   3.811  12.010
  1068G11  C03Y73108   7.180   3.903  12.121
  1068G11  C03X73109   7.223   3.877  12.253
  1068G11  C04F73110   7.353   3.483  12.061
  1068G11  C04E73111   7.411   3.356  12.071
  1068G11  C04O73112   7.484   3.316  12.179
  1068G11  C04D73113   7.410   3.266  11.958
  1068G11  C04V73114   7.497   3.156  11.957
  1068G11  C04W73115   7.575   3.121  12.067
  1068G11  C04C73116   7.336   3.275  11.834
  1068G11  C04L73117   7.383   3.153  11.760
  1068G11  C04U73118   7.359   3.133  11.623
  1068G11  C05Q73119   7.418   3.033  11.548
  1068G11  C05P73120   7.405   3.066  11.412
  1068G11  C04T73121   7.335   3.182  11.402
  1068G11  C04B73122   7.296   3.218  11.528
  1068G11  C03M73123   7.165   3.615  11.753
  1068G11  C04A73124   7.226   3.334  11.551
  1068G11  C05H73125   7.318   3.268  11.295
  1068G11  C05G73126   7.355   3.262  11.160
  1068G11  C05F73127   7.433   3.158  11.097
  1068G11  C05E73128   7.496   3.165  10.975
  1068G11  C05L73129   7.502   3.259  10.863
  1068G11  C05K73130   7.429   3.386  10.866
  1068G11  C05J73131   7.347   3.443  10.966
  1068G11  C06673132   7.436   3.457  10.742
  1068G11  C06573133   7.526   3.411  10.635
  1068G11  C06473134   7.602   3.293  10.647
  1068G11  C06N73135   7.536   3.487  10.515
  1068G11  C06973136   7.460   3.605  10.499
  1068G11  C06P73137   7.475   3.678  10.380
  1068G11  C06R73138   7.415   3.803  10.362
  1068G11  C06B73139   7.329   3.847  10.462
  1068G11  C06S73140   7.272   3.975  10.450
  1068G11  C02G73141   7.190   4.027  10.547
  1068G11  C02F73142   7.120   4.145  10.532
  1068G11  C02773143   7.142   4.228  10.423
  1068G11  C02673144   7.084   4.351  10.411
  1068G11  C00E73145   7.112   4.432  10.307
  1068G11  C00D73146   7.064   4.555  10.303
  1068G11  C00C73147   7.104   4.635  10.201
  1068G11  C00B73148   7.188   4.602  10.097
  1068G11  C01573149   7.232   4.468  10.095
  1068G11  C07F73150   7.331   4.427  10.005
  1068G11  C07E73151   7.382   4.295  10.006
  1068G11  C06W73152   7.352   4.215  10.118
  1068G11  C06V73153   7.261   4.264  10.214
  1068G11  C06X73154   7.401   4.082  10.124
  1068G11  C07B73155   7.487   4.038  10.025
  1068G11  C07C73156   7.519   4.120   9.919
  1068G11  C0FU73157   7.607   4.075   9.819
  1068G11  C0F773158   7.638   4.158   9.710
  1068G11  C0F673159   7.728   4.112   9.619
  1068G11  C0F873160   7.761   4.192   9.512
  1068G11  C0F973161   7.846   4.147   9.413
  1068G11  C0FA73162   7.880   4.229   9.307
  1068G11  C0FZ73163   7.834   4.358   9.300
  1068G11  C0G073164   7.861   4.439   9.194
  1068G11  C0GD73165   7.932   4.389   9.084
  1068G11  C0FC73166   7.973   4.254   9.084
  1068G11  C0GH73167   8.021   4.191   8.966
  1068G11  C0EY73168   8.049   4.058   8.969
  1068G11  C0EX73169   8.083   3.991   8.847
  1068G11  C0EW73170   8.125   3.861   8.857
  1068G11  C0FR73171   8.147   3.785   8.740
  1068G11  H01D73172   8.177   3.683   8.753
  1068G11  C0FS73173   8.127   3.842   8.613
  1068G11  H01C73174   8.137   3.787   8.521
  1068G11  C0GJ73175   8.111   3.982   8.605
  1068G11  H01N73176   8.107   4.028   8.508
  1068G11  C0EV73177   8.149   3.801   8.978
  1068G11  C0FT73178   8.203   3.669   8.993
  1068G11  H01E73179   8.222   3.599   8.912
  1068G11  C0EU73180   8.116   3.868   9.097
  1068G11  C0ET73181   8.110   3.804   9.225
  1068G11  C0EI73182   8.044   3.845   9.334
  1068G11  C0F173183   7.981   3.969   9.321
  1068G11  C0F073184   7.999   4.045   9.206
  1068G11  C0EH73185   8.034   3.761   9.450
  1068G11  C0EG73186   8.106   3.636   9.463
  1068G11  C0EJ73187   7.940   3.809   9.547
  1068G11  C0F373188   7.876   3.936   9.533
  1068G11  C0EK73189   7.917   3.729   9.661
  1068G11  C0EL73190   7.987   3.605   9.677
  1068G11  C0EM73191   7.951   3.541   9.800
  1068G11  C0EN73192   7.844   3.588   9.872
  1068G11  C07I73193   7.819   3.514   9.987
  1068G11  C07473194   7.727   3.552  10.085
  1068G11  C07373195   7.730   3.479  10.204
  1068G11  C07273196   7.642   3.524  10.304
  1068G11  C07573197   7.665   3.671  10.067
  1068G11  C07673198   7.690   3.748   9.952
  1068G11  C07873199   7.626   3.864   9.936
  1068G11  C07G73200   7.582   3.715  10.166
  1068G11  C07073201   7.517   3.834  10.151
  1068G11  C07Z73202   7.915   3.419   9.997
  1068G11  C07773203   7.781   3.710   9.856
  1068G11  C0EO73204   7.819   3.779   9.745
  1068G11  C0F473205   7.757   3.905   9.731
  1068G11  C0EQ73206   8.165   3.677   9.224
  1068G11  C0FQ73207   8.091   4.059   8.723
  1068G11  C0GI73208   8.075   4.199   8.729
  1068G11  H01L73209   8.083   4.247   8.632
  1068G11  C0EZ73210   8.053   3.993   9.092
  1068G11  C0GG73211   8.031   4.266   8.844
  1068G11  C0GF73212   8.006   4.406   8.848
  1068G11  H01M73213   8.021   4.473   8.764
  1068G11  C0GE73214   7.962   4.465   8.968
  1068G11  H01K73215   7.944   4.571   8.966
  1068G11  O00J73216   7.817   4.569   9.189
  1068G11  C0GA73217   7.752   4.618   9.303
  1068G11  C0G973218   7.720   4.756   9.304
  1068G11  H01H73219   7.756   4.815   9.221
  1068G11  C0G873220   7.654   4.816   9.410
  1068G11  C0G773221   7.623   4.954   9.428
  1068G11  H01I73222   7.646   5.025   9.351
  1068G11  O00I73223   7.569   5.006   9.540
  1068G11  C0G673224   7.498   4.914   9.614
  1068G11  H01J73225   7.417   4.965   9.665
  1068G11  C02D73226   7.529   4.775   9.620
  1068G11  C02C73227   7.475   4.691   9.719
  1068G11  C01773228   7.389   4.743   9.826
  1068G11  C01673229   7.335   4.653   9.916
  1068G11  O00173230   7.368   4.875   9.845
  1068G11  C01873231   7.287   4.924   9.944
  1068G11  C00973232   7.219   4.835  10.027
  1068G11  C00873233   7.129   4.875  10.131
  1068G11  C00773234   7.077   4.996  10.193
  1068G11  C00673235   7.140   5.122  10.164
  1068G11  C00573236   7.096   5.245  10.223
  1068G11  C00473237   7.007   5.265  10.336
  1068G11  C00373238   6.955   5.174  10.437
  1068G11  C00273239   6.919   5.231  10.567
  1068G11  C00P73240   6.878   5.146  10.672
  1068G11  C00O73241   6.856   5.198  10.802
  1068G11  C00N73242   6.828   5.119  10.912
  1068G11  C01073243   6.817   5.177  11.035
  1068G11  C01173244   6.816   5.095  11.150
  1068G11  C01Q73245   6.819   5.158  11.278
  1068G11  C01U73246   6.832   5.295  11.291
  1068G11  C01273247   6.832   5.373  11.173
  1068G11  H00073248   6.832   5.480  11.189
  1068G11  C01V73249   6.826   5.342  11.422
  1068G11  H00773250   6.812   5.447  11.442
  1068G11  O00573251   6.819   5.260  11.533
  1068G11  C01W73252   6.801   5.130  11.514
  1068G11  C03173253   6.786   5.052  11.635
  1068G11  C03273254   6.766   4.916  11.620
  1068G11  H00A73255   6.743   4.869  11.714
  1068G11  C03373256   6.753   4.854  11.494
  1068G11  H00B73257   6.726   4.750  11.483
  1068G11  C01O73258   6.792   4.931  11.377
  1068G11  C01N73259   6.805   4.873  11.251
  1068G11  C01M73260   6.805   4.724  11.235
  1068G11  C01L73261   6.831   4.592  11.303
  1068G11  C01K73262   6.813   4.494  11.204
  1068G11  C01Y73263   6.853   4.361  11.218
  1068G11  C02I73264   6.884   4.311  11.343
  1068G11  C02N73265   6.922   4.176  11.357
  1068G11  C02M73266   6.957   4.128  11.486
  1068G11  C02L73267   6.954   4.211  11.597
  1068G11  C02K73268   6.922   4.348  11.580
  1068G11  C02U73269   6.946   4.433  11.691
  1068G11  C02V73270   6.962   4.383  11.818
  1068G11  C03H73271   6.939   4.468  11.931
  1068G11  H00C73272   6.898   4.567  11.918
  1068G11  C02W73273   6.966   4.568  11.673
  1068G11  C02X73274   6.936   4.615  11.542
  1068G11  C02Y73275   6.995   4.745  11.543
  1068G11  H00873276   7.004   4.813  11.460
  1068G11  C02Z73277   7.049   4.775  11.683
  1068G11  O00473278   7.101   4.874  11.731
  1068G11  O00373279   7.020   4.668  11.756
  1068G11  C02J73280   6.890   4.400  11.454
  1068G11  C01Z73281   6.874   4.294  11.096
  1068G11  C02073282   6.870   4.360  10.973
  1068G11  C01I73283   6.834   4.490  10.969
  1068G11  C01H73284   6.842   4.567  10.858
  1068G11  C00K73285   6.829   4.708  10.865
  1068G11  C01S73286   6.797   4.769  10.985
  1068G11  C01473287   6.805   4.902  11.007
  1068G11  C00J73288   6.861   4.786  10.757
  1068G11  C00I73289   6.895   4.726  10.639
  1068G11  C00H73290   6.922   4.590  10.635
  1068G11  C00G73291   6.976   4.535  10.524
  1068G11  C00S73292   6.916   4.812  10.529
  1068G11  C00T73293   6.958   4.746  10.419
  1068G11  C00U73294   6.998   4.826  10.310
  1068G11  C00R73295   6.912   4.952  10.534
  1068G11  C00L73296   6.850   4.924  10.766
  1068G11  C02873297   6.896   4.512  10.744
  1068G11  C02373298   6.934   4.379  10.745
  1068G11  C02473299   6.999   4.324  10.638
  1068G11  C02173300   6.913   4.302  10.860
  1068G11  C02273301   6.969   4.178  10.867
  1068G11  C02H73302   7.032   4.119  10.752
  1068G11  C03073303   7.087   3.989  10.761
  1068G11  C03473304   7.066   3.919  10.874
  1068G11  C02P73305   6.960   4.110  10.982
  1068G11  C02B73306   6.920   4.166  11.107
  1068G11  C01J73307   6.786   4.553  11.084
  1068G11  C01X73308   6.882   4.546  11.433
  1068G11  C01T73309   6.783   4.687  11.099
  1068G11  H00973310   6.798   5.093  11.734
  1068G11  C01P73311   6.808   5.067  11.389
  1068G11  C01R73312   6.804   4.956  11.138
  1068G11  C00Z73313   6.826   5.315  11.046
  1068G11  O00073314   6.834   5.394  10.940
  1068G11  C00M73315   6.817   4.984  10.892
  1068G11  C00Y73316   6.855   5.335  10.819
  1068G11  C01373317   6.880   5.419  10.714
  1068G11  H00173318   6.875   5.526  10.726
  1068G11  C00Q73319   6.879   5.010  10.654
  1068G11  C00173320   6.915   5.370  10.588
  1068G11  C00073321   6.942   5.454  10.482
  1068G11  H00673322   6.927   5.561  10.485
  1068G11  C00W73323   6.953   5.032  10.423
  1068G11  C01G73324   6.991   5.399  10.366
  1068G11  H00573325   7.029   5.470  10.294
  1068G11  C01C73326   7.159   5.341  10.135
  1068G11  H00273327   7.151   5.449  10.136
  1068G11  C01B73328   7.239   5.278  10.034
  1068G11  C01D73329   7.325   5.337   9.940
  1068G11  H00373330   7.335   5.445   9.935
  1068G11  C01E73331   7.390   5.258   9.858
  1068G11  H00473332   7.449   5.294   9.775
  1068G11  O00273333   7.368   5.123   9.860
  1068G11  C01A73334   7.223   5.138  10.051
  1068G11  C00V73335   7.007   4.963  10.309
  1068G11  C01973336   7.293   5.061   9.958
  1068G11  C02E73337   7.508   4.553   9.712
  1068G11  C0FX73338   7.589   4.508   9.609
  1068G11  C0FW73339   7.631   4.373   9.607
  1068G11  C0GB73340   7.639   4.593   9.510
  1068G11  C0G373341   7.459   4.466   9.806
  1068G11  C07H73342   7.505   4.335   9.806
  1068G11  C0GC73343   7.606   4.730   9.513
  1068G11  C0G273344   7.719   4.540   9.411
  1068G11  C0G173345   7.753   4.409   9.408
  1068G11  C0FB73346   7.945   4.175   9.198
  1068G11  C0F273347   7.903   4.014   9.420
  1068G11  C0FY73348   7.710   4.324   9.510
  1068G11  C0F573349   7.787   3.983   9.626
  1068G11  C0FV73350   7.593   4.289   9.710
  1068G11  C07973351   7.664   3.949   9.830
  1068G11  C07A73352   7.541   3.915  10.037
  1068G11  C06Y73353   7.372   4.001  10.234
  1068G11  C07D73354   7.464   4.245   9.909
  1068G11  C01F73355   7.375   4.513   9.911
  1068G11  C00A73356   7.244   4.698  10.014
  1068G11  C00X73357   7.074   4.774  10.209
  1068G11  C00F73358   7.001   4.610  10.410
  1068G11  C02973359   7.197   4.387  10.203
  1068G11  C02573360   7.017   4.402  10.523
  1068G11  C06U73361   7.230   4.181  10.324
  1068G11  C02A73362   7.046   4.196  10.640
  1068G11  C05Y73363   7.173   3.947  10.664
  1068G11  C05Z73364   7.233   3.820  10.681
  1068G11  C06073365   7.219   3.745  10.796
  1068G11  C06273366   7.290   3.630  10.826
  1068G11  C06T73367   7.290   4.050  10.335
  1068G11  C06A73368   7.316   3.771  10.583
  1068G11  C06Z73369   7.432   3.879  10.247
  1068G11  C06Q73370   7.566   3.635  10.281
  1068G11  C06873371   7.383   3.650  10.602
  1068G11  C06773372   7.371   3.579  10.722
  1068G11  C06373373   7.594   3.214  10.762
  1068G11  C06C73374   7.684   3.108  10.781
  1068G11  C06D73375   7.684   3.030  10.891
  1068G11  C06E73376   7.775   2.932  10.926
  1068G11  C07Q73377   7.880   2.915  10.841
  1068G11  C07P73378   7.884   2.988  10.724
  1068G11  C07T73379   7.986   2.961  10.632
  1068G11  C07U73380   7.992   3.031  10.510
  1068G11  C07V73381   8.085   2.992  10.418
  1068G11  C08473382   8.179   2.898  10.448
  1068G11  C08C73383   8.171   2.831  10.569
  1068G11  C08B73384   8.271   2.743  10.597
  1068G11  C08A73385   8.275   2.684  10.719
  1068G11  C08973386   8.185   2.715  10.824
  1068G11  C08873387   8.194   2.648  10.948
  1068G11  C08773388   8.093   2.675  11.040
  1068G11  C08673389   7.985   2.767  11.009
  1068G11  C08X73390   8.305   2.564  10.976
  1068G11  C08T73391   8.398   2.535  10.869
  1068G11  C08D73392   8.086   2.806  10.789
  1068G11  C08U73393   8.375   2.595  10.748
  1068G11  C08V73394   8.466   2.562  10.652
  1068G11  C0CY73395   8.471   2.625  10.532
  1068G11  C0CX73396   8.569   2.586  10.447
  1068G11  C0CW73397   8.582   2.655  10.335
  1068G11  C0CV73398   8.486   2.747  10.299
  1068G11  C0D473399   8.373   2.772  10.382
  1068G11  C0CU73400   8.489   2.814  10.176
  1068G11  C0CT73401   8.597   2.800  10.089
  1068G11  C0CS73402   8.699   2.712  10.129
  1068G11  C0D673403   8.383   2.896  10.149
  1068G11  C0EC73404   8.274   2.922  10.231
  1068G11  C07X73405   8.184   3.024  10.205
  1068G11  C0DL73406   8.390   2.965  10.031
  1068G11  C0DK73407   8.293   3.056   9.996
  1068G11  C0DN73408   8.324   3.090   9.871
  1068G11  C0D873409   8.491   2.951   9.935
  1068G11  C08W73410   8.552   2.468  10.699
  1068G11  C0CQ73411   8.664   2.430  10.614
  1068G11  C09373412   8.368   2.710  10.503
  1068G11  C09273413   8.276   2.862  10.355
  1068G11  C08573414   8.079   2.866  10.661
  1068G11  C07S73415   7.980   2.827  10.885
  1068G11  C06F73416   7.774   2.867  11.052
  1068G11  C07O73417   7.787   3.086  10.691
  1068G11  C07N73418   7.796   3.163  10.576
  1068G11  C05D73419   7.579   3.049  10.976
  1068G11  C05C73420   7.567   2.969  11.089
  1068G11  C05N73421   7.484   3.045  11.174
  1068G11  C05M73422   7.318   3.388  11.101
  1068G11  C05I73423   7.276   3.560  10.948
  1068G11  C06173424   7.132   3.795  10.888
  1068G11  C02Q73425   7.000   3.980  10.974
  1068G11  C02O73426   6.929   4.110  11.230
  1068G11  C03Q73427   7.035   3.759  11.235
  1068G11  C03O73428   7.127   3.656  11.433
  1068G11  C03L73429   7.137   3.758  11.762
  1068G11  C02S73430   7.006   3.992  11.511
  1068G11  C02T73431   7.005   4.168  11.722
  1068G11  C03K73432   7.123   3.840  11.881
  1068G11  C03I73433   6.995   4.250  11.836
  1068G11  C03G73434   6.993   4.426  12.058
  1068G11  H00D73435   6.991   4.499  12.137
  1068G11  C03J73436   7.123   4.026  12.093
  1068G11  C03W73437   7.213   3.969  12.355
  1068G11  C04I73438   7.278   3.754  12.283
  1068G11  C04K73439   7.409   3.515  12.304
  1068G11  C04N73440   7.482   3.393  12.296
  1068G11  C04X73441   7.564   3.201  12.179
  1068G11  C05073442   7.666   3.014  12.050
  1068G11  C05W73443   7.482   3.081  11.837
  1068G11  C05S73444   7.773   2.732  11.682
  1068G11  C05R73445   7.494   2.931  11.581
  1068G11  C05O73446   7.477   3.002  11.303
  1068G11  C05B73447   7.666   2.880  11.132
  1068G11  C05A73448   7.743   2.718  11.448
  1068G11  C07R73449   7.879   2.785  11.100
  1068G11  C08N73450   8.100   2.618  11.170
  1068G11  C08M73451   8.214   2.534  11.198
  1068G11  C08L73452   8.217   2.469  11.321
  1068G11  C09173453   7.826   2.676  11.555
  1068G11  C09K73454   7.903   2.336  11.595
  1068G11  H00M73455   7.798   2.311  11.595
  1068G11  C08K73456   8.117   2.495  11.420
  1068G11  C09J73457   8.000   2.227  11.597
  1068G11  C09I73458   8.012   2.091  11.550
  1068G11  C09L73459   7.933   1.977  11.582
  1068G11  H00N73460   7.833   1.988  11.622
  1068G11  C09Q73461   7.980   1.862  11.530
  1068G11  H00O73462   7.918   1.774  11.533
  1068G11  O00B73463   8.110   1.842  11.475
  1068G11  C09G73464   8.194   1.954  11.445
  1068G11  C09F73465   8.313   1.927  11.368
  1068G11  O00A73466   8.336   1.792  11.345
  1068G11  C09P73467   8.456   1.756  11.297
  1068G11  H00P73468   8.511   1.677  11.347
  1068G11  C09O73469   8.509   1.835  11.192
  1068G11  C09D73470   8.510   1.977  11.223
  1068G11  C09C73471   8.598   2.079  11.164
  1068G11  C09N73472   8.684   2.075  11.051
  1068G11  C09T73473   8.661   1.977  10.940
  1068G11  C09S73474   8.618   1.846  10.965
  1068G11  C0CP73475   8.652   1.787  10.840
  1068G11  C0CN73476   8.723   1.866  10.750
  1068G11  C0CO73477   8.746   1.817  10.619
  1068G11  H01473478   8.782   1.884  10.542
  1068G11  C0CZ73479   8.723   1.678  10.599
  1068G11  H01573480   8.746   1.626  10.507
  1068G11  C0D073481   8.659   1.598  10.695
  1068G11  C0G573482   8.626   1.461  10.678
  1068G11  H01F73483   8.659   1.410  10.589
  1068G11  C0G473484   8.569   1.387  10.774
  1068G11  H01G73485   8.548   1.284  10.751
  1068G11  O00H73486   8.524   1.439  10.897
  1068G11  C0D273487   8.556   1.574  10.918
  1068G11  C09V73488   8.528   1.632  11.046
  1068G11  H00Q73489   8.481   1.573  11.123
  1068G11  C0D173490   8.620   1.652  10.823
  1068G11  C09R73491   8.554   1.773  11.068
  1068G11  C09H73492   8.142   2.076  11.487
  1068G11  C09E73493   8.408   2.022  11.320
  1068G11  C09B73494   8.591   2.210  11.207
  1068G11  C08Z73495   8.310   2.364  11.329
  1068G11  C08O73496   8.326   2.513  11.111
  1068G11  C09A73497   8.655   2.298  11.118
  1068G11  C08S73498   8.515   2.455  10.839
  1068G11  C09973499   8.715   2.217  11.017
  1068G11  C09U73500   8.737   1.989  10.820
  1068G11  C0BO73501   9.036   2.156  10.477
  1068G11  C0CL73502   8.747   2.319  10.649
  1068G11  C0D373503   8.673   2.497  10.490
  1068G11  C0D573504   8.688   2.641  10.252
  1068G11  C0BR73505   8.968   2.349  10.349
  1068G11  C0BQ73506   9.062   2.250  10.379
  1068G11  C0BL73507   9.231   2.029  10.403
  1068G11  C0AF73508   9.466   2.024  10.274
  1068G11  C0BH73509   9.328   2.337  10.143
  1068G11  C0BG73510   9.347   2.423  10.038
  1068G11  C0BD73511   9.572   2.334  10.012
  1068G11  C0AG73512   9.587   2.028  10.212
  1068G11  C0AI73513   9.771   1.895  10.126
  1068G11  C0AV73514   9.924   1.839   9.905
  1068G11  C0BB73515   9.901   2.210   9.910
  1068G11  O00C73516  10.008   1.954   9.700
  1068G11  C0BC73517   9.948   2.296   9.814
  1068G11  C0B973518   9.691   2.328   9.937
  1068G11  O00E73519   9.648   2.580   9.680
  1068G11  C0CA73520   9.553   2.672   9.632
  1068G11  O00F73521   9.587   2.753   9.548
  1068G11  C0BF73522   9.472   2.423   9.969
  1068G11  C0C573523   9.426   2.672   9.705
  1068G11  C0C473524   9.320   2.760   9.657
  1068G11  H01173525   9.347   2.830   9.578
  1068G11  C0C873526   9.248   2.508   9.994
  1068G11  C0C273527   9.197   2.760   9.732
  1068G11  C0C373528   9.085   2.833   9.685
  1068G11  C0DY73529   9.076   2.918   9.575
  1068G11  H01673530   9.147   2.948   9.498
  1068G11  C0DX73531   8.945   2.969   9.570
  1068G11  C0DW73532   8.897   3.042   9.460
  1068G11  C0BY73533   9.031   2.606  10.024
  1068G11  C0DB73534   8.963   2.841   9.751
  1068G11  C0CC73535   8.806   2.694  10.043
  1068G11  C0D773536   8.606   2.873   9.965
  1068G11  C0DZ73537   8.864   2.919   9.686
  1068G11  C0DM73538   8.452   3.033   9.826
  1068G11  C0DQ73539   8.667   3.106   9.549
  1068G11  C0DV73540   8.777   3.113   9.456
  1068G11  C0E073541   8.961   3.077   9.333
  1068G11  C0FO73542   8.808   3.189   9.048
  1068G11  C0E373543   9.029   3.001   9.225
  1068G11  H01773544   9.061   2.898   9.216
  1068G11  C0GV73545   8.837   3.093   8.952
  1068G11  C0ES73546   8.674   3.227   9.063
  1068G11  C0GQ73547   8.523   3.065   8.766
  1068G11  C0FJ73548   8.219   3.259   8.871
  1068G11  C0ED73549   8.398   3.329   9.080
  1068G11  C0ER73550   8.213   3.613   9.116
  1068G11  C0EP73551   8.175   3.602   9.342
  1068G11  C0E673552   8.442   3.325   9.331
  1068G11  C0DE73553   8.331   3.254   9.614
  1068G11  C0EA73554   8.088   3.559   9.581
  1068G11  C0DF73555   8.221   3.217   9.688
  1068G11  C08073556   7.990   3.427   9.869
  1068G11  C0DO73557   8.224   3.167   9.823
  1068G11  C0DJ73558   8.189   3.088  10.088
  1068G11  C07K73559   7.914   3.346  10.123
  1068G11  C07W73560   8.089   3.064  10.299
  1068G11  C08373561   7.899   3.133  10.487
  1068G11  C07J73562   7.815   3.377  10.220
  1068G11  C06O73563   7.628   3.449  10.420
  1068G11  C06M73564   7.704   3.263  10.551
  1078G11  C07173565   6.108   1.380  12.424
  1078G11  C07L73566   5.984   1.443  12.390
  1078G11  C07M73567   5.935   1.424  12.263
  1078G11  C07Y73568   5.821   1.499  12.221
  1078G11  C08173569   5.744   1.572  12.313
  1078G11  C08273570   5.626   1.629  12.269
  1078G11  C0DI73571   5.519   1.707  12.340
  1078G11  C0DH73572   5.498   1.746  12.474
  1078G11  C0DG73573   5.377   1.819  12.493
  1078G11  C0E973574   5.345   1.936  12.576
  1078G11  C0E873575   5.240   2.000  12.492
  1078G11  C0E773576   5.127   2.087  12.535
  1078G11  C0EB73577   5.106   2.105  12.674
  1078G11  C0EF73578   4.978   2.139  12.737
  1078G11  C0EE73579   4.846   2.125  12.690
  1078G11  C0FD73580   4.750   2.080  12.784
  1078G11  C0FE73581   4.768   1.999  12.898
  1078G11  H01B73582   4.864   1.954  12.915
  1078G11  C0FF73583   4.667   1.964  12.989
  1078G11  H01A73584   4.679   1.895  13.072
  1078G11  C0FG73585   4.542   2.004  12.956
  1078G11  H01873586   4.469   1.984  13.033
  1078G11  C0FH73587   4.512   2.078  12.841
  1078G11  C0FI73588   4.380   2.125  12.818
  1078G11  H01973589   4.303   2.109  12.892
  1078G11  O00K73590   4.344   2.184  12.700
  1078G11  C0FL73591   4.444   2.200  12.613
  1078G11  C0FK73592   4.585   2.183  12.635
  1078G11  C0FM73593   4.681   2.217  12.544
  1078G11  C0FN73594   4.640   2.285  12.424
  1078G11  C0FP73595   4.503   2.295  12.399
  1078G11  C0GO73596   4.452   2.323  12.273
  1078G11  C0GN73597   4.327   2.295  12.226
  1078G11  C0GR73598   4.229   2.260  12.325
  1078G11  C0GS73599   4.102   2.214  12.291
  1078G11  H01Q73600   4.046   2.179  12.377
  1078G11  C0GT73601   4.066   2.212  12.157
  1078G11  H01O73602   3.966   2.185  12.128
  1078G11  C0GU73603   4.163   2.247  12.061
  1078G11  H01P73604   4.138   2.235  11.956
  1078G11  O00L73605   4.275   2.246  12.459
  1078G11  C0GM73606   4.300   2.286  12.089
  1078G11  C0GL73607   4.406   2.310  11.999
  1078G11  H01R73608   4.383   2.289  11.895
  1078G11  C0GK73609   4.524   2.364  12.042
  1078G11  C0GP73610   4.652   2.413  11.990
  1078G11  C0E273611   4.736   2.452  12.105
  1078G11  C0E173612   4.866   2.416  12.062
  1078G11  C0DU73613   4.939   2.308  12.118
  1078G11  C0DT73614   4.948   2.259  12.246
  1078G11  C0E473615   4.859   2.281  12.340
  1078G11  C0E573616   4.905   2.214  12.457
  1078G11  C0DS73617   5.047   2.169  12.292
  1078G11  C0DR73618   5.124   2.108  12.192
  1078G11  C0DD73619   5.211   1.998  12.214
  1078G11  C0DC73620   5.244   1.960  12.075
  1078G11  C0DP73621   5.183   2.047  11.969
  1078G11  C0DA73622   5.198   2.041  11.823
  1078G11  C0D973623   5.276   1.946  11.728
  1078G11  C0CR73624   5.286   1.971  11.587
  1078G11  C0C073625   5.222   2.076  11.527
  1078G11  C0BZ73626   5.228   2.115  11.390
  1078G11  C0C173627   5.185   2.240  11.344
  1078G11  C0C773628   5.183   2.269  11.206
  1078G11  C0C673629   5.132   2.392  11.154
  1078G11  C0C973630   5.135   2.414  11.016
  1078G11  C0B873631   5.103   2.544  10.969
  1078G11  C0B773632   5.101   2.569  10.827
  1078G11  C0B673633   5.074   2.687  10.750
  1078G11  C0B573634   5.141   2.808  10.787
  1078G11  H00Z73635   5.190   2.835  10.879
  1078G11  C0B473636   5.162   2.874  10.659
  1078G11  H01073637   5.220   2.964  10.640
  1078G11  C0B373638   5.100   2.812  10.549
  1078G11  C0AP73639   5.160   2.768  10.426
  1078G11  C0AQ73640   5.132   2.627  10.418
  1078G11  C0AR73641   5.211   2.543  10.339
  1078G11  C0AS73642   5.201   2.410  10.382
  1078G11  C0AT73643   5.176   2.373  10.516
  1078G11  C0BA73644   5.128   2.467  10.604
  1078G11  C0AU73645   5.223   2.254  10.568
  1078G11  C0BE73646   5.217   2.231  10.705
  1078G11  C0BI73647   5.270   2.113  10.757
  1078G11  C0BJ73648   5.328   2.020  10.668
  1078G11  C0BK73649   5.383   1.908  10.714
  1078G11  C0BW73650   5.389   1.885  10.853
  1078G11  C0BV73651   5.333   1.977  10.942
  1078G11  C0BU73652   5.338   1.954  11.077
  1078G11  C0BX73653   5.290   2.052  11.168
  1078G11  C0BT73654   5.395   1.839  11.132
  1078G11  C0CD73655   5.401   1.816  11.267
  1078G11  C0CB73656   5.345   1.909  11.351
  1078G11  C0CE73657   5.473   1.712  11.314
  1078G11  C0CK73658   5.539   1.621  11.225
  1078G11  C0BS73659   5.526   1.636  11.090
  1078G11  C0CJ73660   5.596   1.554  10.999
  1078G11  C0BP73661   5.581   1.577  10.865
  1078G11  C0CI73662   5.642   1.494  10.776
  1078G11  C0CH73663   5.604   1.499  10.638
  1078G11  H01273664   5.648   1.419  10.581
  1078G11  C0BN73665   5.551   1.612  10.588
  1078G11  C0CG73666   5.567   1.642  10.453
  1078G11  C0CF73667   5.633   1.554  10.362
  1078G11  H01373668   5.662   1.454  10.389
  1078G11  O00G73669   5.673   1.586  10.234
  1078G11  C0AA73670   5.648   1.719  10.198
  1078G11  C0A973671   5.706   1.762  10.082
  1078G11  H00U73672   5.765   1.689  10.027
  1078G11  C0A873673   5.685   1.891  10.036
  1078G11  H00V73674   5.736   1.915   9.944
  1078G11  C0A773675   5.614   1.991  10.111
  1078G11  C0A673676   5.548   1.945  10.237
  1078G11  C0A573677   5.461   2.015  10.317
  1078G11  C0A473678   5.415   2.146  10.270
  1078G11  C0A373679   5.441   2.245  10.169
  1078G11  C0A273680   5.560   2.247  10.100
  1078G11  C0A173681   5.610   2.352  10.022
  1078G11  C0A073682   5.573   2.491  10.003
  1078G11  C09Z73683   5.654   2.561   9.914
  1078G11  C09Y73684   5.637   2.697   9.890
  1078G11  H00Y73685   5.701   2.747   9.819
  1078G11  C09X73686   5.554   2.771   9.973
  1078G11  C09W73687   5.558   2.911   9.956
  1078G11  H00R73688   5.608   2.961   9.874
  1078G11  C0AX73689   5.490   2.992  10.045
  1078G11  H00S73690   5.483   3.099  10.033
  1078G11  C0AW73691   5.414   2.931  10.142
  1078G11  H00T73692   5.368   2.997  10.214
  1078G11  C0AN73693   5.402   2.791  10.155
  1078G11  C0AO73694   5.324   2.730  10.252
  1078G11  C0AM73695   5.477   2.707  10.073
  1078G11  C0B273696   5.755   2.511   9.831
  1078G11  O00D73697   5.826   2.570   9.745
  1078G11  C0B173698   5.791   2.375   9.851
  1078G11  H00W73699   5.868   2.332   9.789
  1078G11  C0AL73700   5.473   2.563  10.083
  1078G11  C0AK73701   5.384   2.512  10.177
  1078G11  C0B073702   5.718   2.302   9.948
  1078G11  C0AZ73703   5.731   2.167   9.975
  1078G11  H00X73704   5.816   2.112   9.935
  1078G11  C0AJ73705   5.373   2.369  10.202
  1078G11  C0AH73706   5.314   2.200  10.352
  1078G11  C0AE73707   5.418   1.974  10.445
  1078G11  C0AD73708   5.458   1.851  10.492
  1078G11  C0AY73709   5.629   2.128  10.066
  1078G11  C0AB73710   5.575   1.814  10.281
  1078G11  C0AC73711   5.532   1.767  10.408
  1078G11  C0BM73712   5.496   1.703  10.673
  1078G11  C0CM73713   5.744   1.412  10.820
  1078G11  C09M73714   5.744   1.362  10.949
  1078G11  C09873715   5.805   1.234  10.971
  1078G11  C08R73716   5.858   1.171  11.090
  1078G11  C08Q73717   5.921   1.046  11.076
  1078G11  C08P73718   6.023   0.964  11.146
  1078G11  C08Y73719   6.095   0.870  11.064
  1078G11  C09773720   6.080   0.884  10.925
  1078G11  C09673721   6.198   0.876  10.861
  1078G11  C09073722   6.285   0.814  10.957
  1078G11  C09573723   6.424   0.785  10.941
  1078G11  C09473724   6.511   0.722  11.037
  1078G11  C08J73725   6.491   0.705  11.176
  1078G11  C08I73726   6.619   0.731  11.232
  1078G11  C08H73727   6.608   0.784  11.366
  1078G11  C08G73728   6.469   0.823  11.383
  1078G11  C08F73729   6.378   0.862  11.494
  1078G11  C08E73730   6.416   0.858  11.630
  1078G11  C05973731   6.525   0.788  11.683
  1078G11  C05873732   6.551   0.787  11.820
  1078G11  C05773733   6.670   0.739  11.882
  1078G11  C05673734   6.759   0.677  11.792
  1078G11  C05573735   6.727   0.629  11.669
  1078G11  C05473736   6.848   0.608  11.600
  1078G11  C05373737   6.960   0.640  11.686
  1078G11  C05273738   7.099   0.651  11.663
  1078G11  C05173739   7.148   0.649  11.529
  1078G11  C05U73740   7.069   0.651  11.402
  1078G11  C05T73741   6.926   0.647  11.375
  1078G11  C06K73742   6.918   0.589  11.249
  1078G11  H00J73743   6.821   0.549  11.223
  1078G11  C06L73744   7.043   0.586  11.182
  1078G11  H00I73745   7.068   0.555  11.082
  1078G11  C05V73746   7.134   0.631  11.283
  1078G11  C06J73747   7.270   0.641  11.264
  1078G11  H00K73748   7.309   0.625  11.165
  1078G11  C05X73749   7.349   0.657  11.380
  1078G11  C06I73750   7.489   0.662  11.369
  1078G11  H00L73751   7.539   0.645  11.275
  1078G11  C04Z73752   7.578   0.672  11.475
  1078G11  C06H73753   7.719   0.677  11.455
  1078G11  H00H73754   7.760   0.645  11.360
  1078G11  C04Y73755   7.801   0.726  11.562
  1078G11  C06G73756   7.940   0.747  11.536
  1078G11  O00973757   7.999   0.736  11.426
  1078G11  O00873758   8.019   0.791  11.647
  1078G11  C04P73759   7.960   0.816  11.771
  1078G11  C04J73760   8.033   0.875  11.881
  1078G11  C04Q73761   8.166   0.921  11.884
  1078G11  H00E73762   8.220   0.912  11.791
  1078G11  C04M73763   8.229   0.980  11.999
  1078G11  C04R73764   8.362   1.027  12.007
  1078G11  H00F73765   8.430   1.006  11.926
  1078G11  C04S73766   8.406   1.083  12.122
  1078G11  H00G73767   8.508   1.121  12.122
  1078G11  O00773768   8.332   1.097  12.233
  1078G11  C03V73769   8.202   1.058  12.223
  1078G11  C03U73770   8.125   1.081  12.334
  1078G11  O00673771   8.194   1.139  12.437
  1078G11  C03F73772   8.116   1.196  12.533
  1078G11  C03E73773   7.976   1.173  12.539
  1078G11  C03D73774   7.914   1.091  12.445
  1078G11  C03C73775   7.776   1.070  12.453
  1078G11  C03B73776   7.714   1.129  12.561
  1078G11  C03A73777   7.578   1.106  12.578
  1078G11  C03973778   7.501   1.032  12.478
  1078G11  C03873779   7.366   1.042  12.535
  1078G11  C03773780   7.382   1.110  12.652
  1078G11  C03673781   7.274   1.128  12.734
  1078G11  C02R73782   7.267   1.192  12.859
  1078G11  C03573783   7.131   1.205  12.874
  1078G11  C03R73784   7.058   1.130  12.783
  1078G11  C03S73785   6.922   1.146  12.756
  1078G11  C04973786   6.876   1.095  12.637
  1078G11  C04873787   6.975   1.039  12.552
  1078G11  C03P73788   7.117   1.040  12.571
  1078G11  C04773789   6.912   0.971  12.444
  1078G11  C04673790   6.975   0.893  12.349
  1078G11  C04573791   7.111   0.858  12.329
  1078G11  C03T73792   7.229   0.906  12.391
  1078G11  C04473793   7.336   0.859  12.310
  1078G11  C04373794   7.286   0.760  12.220
  1078G11  C04273795   7.368   0.763  12.102
  1078G11  C04173796   7.490   0.832  12.148
  1078G11  C04073797   7.613   0.835  12.081
  1078G11  C03Z73798   7.738   0.889  12.124
  1078G11  C04H73799   7.825   0.871  12.015
  1078G11  C04G73800   7.756   0.825  11.905
  1078G11  C03N73801   7.794   0.957  12.239
  1078G11  C03Y73802   7.931   0.987  12.227
  1078G11  C03X73803   8.014   0.963  12.114
  1078G11  C04F73804   7.627   0.798  11.942
  1078G11  C04E73805   7.549   0.733  11.841
  1078G11  C04O73806   7.602   0.719  11.712
  1078G11  C04D73807   7.410   0.705  11.851
  1078G11  C04V73808   7.330   0.678  11.741
  1078G11  C04W73809   7.378   0.671  11.612
  1078G11  C04C73810   7.326   0.720  11.966
  1078G11  C04L73811   7.191   0.689  11.914
  1078G11  C04U73812   7.067   0.707  11.990
  1078G11  C05Q73813   6.938   0.698  11.937
  1078G11  C05P73814   6.845   0.740  12.036
  1078G11  C04T73815   6.914   0.775  12.146
  1078G11  C04B73816   7.051   0.753  12.123
  1078G11  C03M73817   7.471   0.897  12.277
  1078G11  C04A73818   7.147   0.785  12.218
  1078G11  C05H73819   6.874   0.847  12.261
  1078G11  C05G73820   6.749   0.904  12.299
  1078G11  C05F73821   6.626   0.886  12.228
  1078G11  C05E73822   6.518   0.974  12.243
  1078G11  C05L73823   6.479   1.083  12.335
  1078G11  C05K73824   6.551   1.123  12.453
  1078G11  C05J73825   6.686   1.083  12.491
  1078G11  C06673826   6.479   1.209  12.537
  1078G11  C06573827   6.354   1.267  12.498
  1078G11  C06473828   6.293   1.235  12.376
  1078G11  C06N73829   6.292   1.360  12.579
  1078G11  C06973830   6.351   1.395  12.701
  1078G11  C06P73831   6.287   1.482  12.792
  1078G11  C06R73832   6.343   1.517  12.917
  1078G11  C06B73833   6.474   1.483  12.937
  1078G11  C06S73834   6.533   1.530  13.054
  1078G11  C02G73835   6.666   1.504  13.076
  1078G11  C02F73836   6.729   1.567  13.179
  1078G11  C02773837   6.664   1.648  13.263
  1078G11  C02673838   6.731   1.713  13.369
  1078G11  C00E73839   6.674   1.814  13.440
  1078G11  C00D73840   6.744   1.885  13.533
  1078G11  C00C73841   6.686   1.994  13.597
  1078G11  C00B73842   6.557   2.033  13.574
  1078G11  C01573843   6.483   1.954  13.484
  1078G11  C07F73844   6.352   1.986  13.466
  1078G11  C07E73845   6.284   1.918  13.366
  1078G11  C06W73846   6.342   1.812  13.294
  1078G11  C06V73847   6.471   1.775  13.324
  1078G11  C06X73848   6.268   1.749  13.193
  1078G11  C07B73849   6.143   1.792  13.165
  1078G11  C07C73850   6.081   1.893  13.237
  1078G11  C0FU73851   5.956   1.936  13.205
  1078G11  C0F773852   5.894   2.036  13.274
  1078G11  C0F673853   5.763   2.080  13.241
  1078G11  C0F873854   5.703   2.175  13.315
  1078G11  C0F973855   5.570   2.207  13.286
  1078G11  C0FA73856   5.507   2.301  13.368
  1078G11  C0FZ73857   5.573   2.364  13.466
  1078G11  C0G073858   5.506   2.454  13.548
  1078G11  C0GD73859   5.371   2.483  13.541
  1078G11  C0FC73860   5.301   2.408  13.444
  1078G11  C0GH73861   5.166   2.418  13.433
  1078G11  C0EY73862   5.097   2.350  13.329
  1078G11  C0EX73863   4.960   2.344  13.322
  1078G11  C0EW73864   4.894   2.299  13.203
  1078G11  C0FR73865   4.754   2.289  13.195
  1078G11  H01D73866   4.698   2.264  13.106
  1078G11  C0FS73867   4.677   2.318  13.303
  1078G11  H01C73868   4.569   2.325  13.301
  1078G11  C0GJ73869   4.739   2.359  13.417
  1078G11  H01N73870   4.668   2.370  13.498
  1078G11  C0EV73871   4.970   2.259  13.099
  1078G11  C0FT73872   4.917   2.242  12.968
  1078G11  H01E73873   4.818   2.261  12.930
  1078G11  C0EU73874   5.105   2.235  13.119
  1078G11  C0ET73875   5.187   2.182  13.021
  1078G11  C0EI73876   5.321   2.157  13.031
  1078G11  C0F173877   5.376   2.197  13.149
  1078G11  C0F073878   5.305   2.270  13.242
  1078G11  C0EH73879   5.390   2.084  12.930
  1078G11  C0EG73880   5.335   2.055  12.798
  1078G11  C0EJ73881   5.519   2.037  12.964
  1078G11  C0F373882   5.578   2.078  13.088
  1078G11  C0EK73883   5.583   1.950  12.879
  1078G11  C0EL73884   5.527   1.909  12.752
  1078G11  C0EM73885   5.608   1.808  12.686
  1078G11  C0EN73886   5.726   1.769  12.744
  1078G11  C07I73887   5.786   1.676  12.663
  1078G11  C07473888   5.917   1.630  12.698
  1078G11  C07373889   5.977   1.547  12.602
  1078G11  C07273890   6.103   1.497  12.636
  1078G11  C07573891   5.968   1.666  12.819
  1078G11  C07673892   5.896   1.752  12.901
  1078G11  C07873893   5.953   1.789  13.017
  1078G11  C07G73894   6.093   1.617  12.851
  1078G11  C07073895   6.151   1.656  12.967
  1078G11  C07Z73896   5.724   1.661  12.540
  1078G11  C07773897   5.780   1.808  12.861
  1078G11  C0EO73898   5.708   1.898  12.929
  1078G11  C0F473899   5.764   1.935  13.051
  1078G11  C0EQ73900   5.133   2.157  12.897
  1078G11  C0FQ73901   4.876   2.389  13.428
  1078G11  C0GI73902   4.948   2.452  13.531
  1078G11  H01L73903   4.893   2.506  13.607
  1078G11  C0EZ73904   5.166   2.287  13.229
  1078G11  C0GG73905   5.088   2.478  13.530
  1078G11  C0GF73906   5.158   2.569  13.617
  1078G11  H01M73907   5.103   2.637  13.679
  1078G11  C0GE73908   5.297   2.580  13.615
  1078G11  H01K73909   5.353   2.656  13.669
  1078G11  O00J73910   5.580   2.534  13.636
  1078G11  C0GA73911   5.710   2.506  13.655
  1078G11  C0G973912   5.787   2.580  13.745
  1078G11  H01H73913   5.726   2.661  13.784
  1078G11  C0G873914   5.922   2.567  13.778
  1078G11  C0G773915   6.003   2.645  13.869
  1078G11  H01I73916   5.967   2.740  13.906
  1078G11  O00I73917   6.134   2.613  13.905
  1078G11  C0G673918   6.187   2.508  13.832
  1078G11  H01J73919   6.289   2.483  13.857
  1078G11  C02D73920   6.118   2.429  13.732
  1078G11  C02C73921   6.185   2.330  13.657
  1078G11  C01773922   6.327   2.300  13.665
  1078G11  C01673923   6.377   2.180  13.606
  1078G11  O00173924   6.415   2.394  13.709
  1078G11  C01873925   6.545   2.369  13.730
  1078G11  C00973926   6.598   2.243  13.700
  1078G11  C00873927   6.732   2.195  13.726
  1078G11  C00773928   6.852   2.255  13.781
  1078G11  C00673929   6.864   2.395  13.801
  1078G11  C00573930   6.985   2.454  13.850
  1078G11  C00473931   7.120   2.398  13.860
  1078G11  C00373932   7.183   2.276  13.805
  1078G11  C00273933   7.325   2.270  13.796
  1078G11  C00P73934   7.387   2.170  13.715
  1078G11  C00O73935   7.521   2.172  13.681
  1078G11  C00N73936   7.580   2.086  13.593
  1078G11  C01073937   7.710   2.101  13.557
  1078G11  C01173938   7.772   2.020  13.464
  1078G11  C01Q73939   7.902   2.049  13.416
  1078G11  C01U73940   7.972   2.162  13.459
  1078G11  C01273941   7.912   2.235  13.561
  1078G11  H00073942   7.962   2.315  13.612
  1078G11  C01V73943   8.102   2.181  13.399
  1078G11  H00773944   8.157   2.266  13.439
  1078G11  O00573945   8.153   2.107  13.295
  1078G11  C01W73946   8.087   1.991  13.271
  1078G11  C03173947   8.154   1.891  13.206
  1078G11  C03273948   8.098   1.767  13.173
  1078G11  H00A73949   8.149   1.695  13.112
  1078G11  C03373950   7.966   1.745  13.210
  1078G11  H00B73951   7.915   1.653  13.188
  1078G11  C01O73952   7.893   1.848  13.274
  1078G11  C01N73953   7.762   1.832  13.306
  1078G11  C01M73954   7.678   1.726  13.242
  1078G11  C01L73955   7.670   1.621  13.136
  1078G11  C01K73956   7.542   1.561  13.148
  1078G11  C01Y73957   7.482   1.456  13.074
  1078G11  C02I73958   7.555   1.403  12.972
  1078G11  C02N73959   7.490   1.304  12.889
  1078G11  C02M73960   7.561   1.239  12.784
  1078G11  C02L73961   7.692   1.275  12.759
  1078G11  C02K73962   7.746   1.392  12.833
  1078G11  C02U73963   7.883   1.423  12.801
  1078G11  C02V73964   7.958   1.336  12.720
  1078G11  C03H73965   8.097   1.350  12.720
  1078G11  H00C73966   8.153   1.404  12.794
  1078G11  C02W73967   7.926   1.548  12.839
  1078G11  C02X73968   7.851   1.617  12.933
  1078G11  C02Y73969   7.910   1.740  12.928
  1078G11  H00873970   7.888   1.828  12.987
  1078G11  C02Z73971   8.026   1.744  12.833
  1078G11  O00473972   8.101   1.839  12.811
  1078G11  O00373973   8.032   1.623  12.778
  1078G11  C02J73974   7.686   1.454  12.946
  1078G11  C01Z73975   7.347   1.441  13.102
  1078G11  C02073976   7.279   1.514  13.201
  1078G11  C01I73977   7.342   1.612  13.275
  1078G11  C01H73978   7.281   1.690  13.364
  1078G11  C00K73979   7.354   1.787  13.426
  1078G11  C01S73980   7.488   1.809  13.398
  1078G11  C01473981   7.568   1.907  13.439
  1078G11  C00J73982   7.296   1.872  13.515
  1078G11  C00I73983   7.161   1.861  13.537
  1078G11  C00H73984   7.080   1.770  13.463
  1078G11  C00G73985   6.940   1.774  13.468
  1078G11  C00S73986   7.098   1.956  13.620
  1078G11  C00T73987   6.962   1.946  13.625
  1078G11  C00U73988   6.903   2.048  13.703
  1078G11  C00R73989   7.170   2.059  13.680
  1078G11  C00L73990   7.371   1.971  13.573
  1078G11  C02873991   7.142   1.687  13.375
  1078G11  C02373992   7.076   1.604  13.291
  1078G11  C02473993   6.937   1.613  13.291
  1078G11  C02173994   7.143   1.520  13.203
  1078G11  C02273995   7.073   1.448  13.116
  1078G11  C02H73996   6.934   1.457  13.110
  1078G11  C03073997   6.861   1.387  13.016
  1078G11  C03473998   6.927   1.293  12.943
  1078G11  C02P73999   7.142   1.362  13.032
  1078G11  C02B74000   7.280   1.358  13.017
  1078G11  C01J74001   7.477   1.631  13.239
  1078G11  C01X74002   7.746   1.570  13.015
  1078G11  C01T74003   7.551   1.722  13.306
  1078G11  H00974004   8.254   1.910  13.169
  1078G11  C01P74005   7.955   1.963  13.320
  1078G11  C01R74006   7.701   1.915  13.403
  1078G11  C00Z74007   7.786   2.208  13.614
  1078G11  O00074008   7.733   2.282  13.716
  1078G11  C00M74009   7.509   1.983  13.537
  1078G11  C00Y74010   7.604   2.268  13.743
  1078G11  C01374011   7.550   2.359  13.831
  1078G11  H00174012   7.614   2.440  13.864
  1078G11  C00Q74013   7.307   2.067  13.657
  1078G11  C00174014   7.412   2.363  13.854
  1078G11  C00074015   7.346   2.461  13.929
  1078G11  H00674016   7.405   2.538  13.976
  1078G11  C00W74017   7.110   2.171  13.742
  1078G11  C01G74018   7.207   2.483  13.933
  1078G11  H00574019   7.171   2.567  13.990
  1078G11  C01C74020   6.950   2.589  13.883
  1078G11  H00274021   7.019   2.666  13.915
  1078G11  C01B74022   6.811   2.609  13.850
  1078G11  C01D74023   6.730   2.723  13.877
  1078G11  H00374024   6.767   2.821  13.905
  1078G11  C01E74025   6.603   2.708  13.854
  1078G11  H00474026   6.532   2.788  13.870
  1078G11  O00274027   6.532   2.592  13.821
  1078G11  C01A74028   6.759   2.489  13.803
  1078G11  C00V74029   6.964   2.163  13.751
  1078G11  C01974030   6.616   2.478  13.788
  1078G11  C02E74031   6.111   2.246  13.565
  1078G11  C0FX74032   5.975   2.274  13.547
  1078G11  C0FW74033   5.901   2.204  13.454
  1078G11  C0GB74034   5.916   2.379  13.617
  1078G11  C0G374035   6.166   2.141  13.500
  1078G11  C07H74036   6.094   2.070  13.402
  1078G11  C0GC74037   5.985   2.457  13.710
  1078G11  C0G274038   5.780   2.404  13.590
  1078G11  C0G174039   5.706   2.334  13.495
  1078G11  C0FB74040   5.372   2.330  13.351
  1078G11  C0F274041   5.506   2.157  13.174
  1078G11  C0FY74042   5.769   2.236  13.422
  1078G11  C0F574043   5.705   2.031  13.126
  1078G11  C0FV74044   5.961   2.101  13.378
  1078G11  C07974045   5.891   1.889  13.093
  1078G11  C07A74046   6.079   1.741  13.054
  1078G11  C06Y74047   6.331   1.650  13.118
  1078G11  C07D74048   6.154   1.964  13.337
  1078G11  C01F74049   6.296   2.104  13.527
  1078G11  C00A74050   6.514   2.154  13.629
  1078G11  C00X74051   6.766   2.071  13.684
  1078G11  C00F74052   6.879   1.862  13.551
  1078G11  C02974053   6.540   1.849  13.416
  1078G11  C02574054   6.870   1.698  13.374
  1078G11  C06U74055   6.529   1.678  13.246
  1078G11  C02A74056   6.866   1.541  13.194
  1078G11  C05Y74057   6.725   1.412  12.992
  1078G11  C05Z74058   6.664   1.353  12.883
  1078G11  C06074059   6.727   1.262  12.806
  1078G11  C06274060   6.669   1.214  12.686
  1078G11  C06T74061   6.461   1.617  13.142
  1078G11  C06A74062   6.540   1.397  12.849
  1078G11  C06Z74063   6.274   1.609  13.000
  1078G11  C06Q74064   6.160   1.531  12.761
  1078G11  C06874065   6.477   1.347  12.736
  1078G11  C06774066   6.539   1.256  12.652
  1078G11  C06374067   6.357   1.145  12.295
  1078G11  C06C74068   6.289   1.114  12.178
  1078G11  C06D74069   6.337   1.031  12.084
  1078G11  C06E74070   6.297   1.017  11.947
  1078G11  C07Q74071   6.196   1.094  11.901
  1078G11  C07P74072   6.127   1.171  11.996
  1078G11  C07T74073   6.026   1.254  11.950
  1078G11  C07U74074   5.958   1.340  12.039
  1078G11  C07V74075   5.853   1.414  11.992
  1078G11  C08474076   5.816   1.410  11.859
  1078G11  C08C74077   5.889   1.334  11.772
  1078G11  C08B74078   5.857   1.340  11.639
  1078G11  C08A74079   5.928   1.256  11.557
  1078G11  C08974080   6.027   1.171  11.593
  1078G11  C08874081   6.084   1.087  11.497
  1078G11  C08774082   6.188   1.006  11.537
  1078G11  C08674083   6.227   1.010  11.676
  1078G11  C08X74084   6.035   1.083  11.366
  1078G11  C08T74085   5.939   1.186  11.327
  1078G11  C08D74086   6.057   1.173  11.726
  1078G11  C08U74087   5.896   1.265  11.424
  1078G11  C08V74088   5.788   1.340  11.380
  1078G11  C0CY74089   5.716   1.418  11.467
  1078G11  C0CX74090   5.631   1.508  11.408
  1078G11  C0CW74091   5.571   1.600  11.494
  1078G11  C0CV74092   5.589   1.588  11.630
  1078G11  C0D474093   5.686   1.502  11.680
  1078G11  C0CU74094   5.519   1.662  11.718
  1078G11  C0CT74095   5.423   1.754  11.677
  1078G11  C0CS74096   5.416   1.776  11.544
  1078G11  C0D674097   5.542   1.638  11.848
  1078G11  C0EC74098   5.640   1.563  11.902
  1078G11  C07X74099   5.676   1.556  12.036
  1078G11  C0DL74100   5.461   1.704  11.941
  1078G11  C0DK74101   5.490   1.699  12.078
  1078G11  C0DN74102   5.400   1.774  12.139
  1078G11  C0D874103   5.358   1.794  11.908
  1078G11  C08W74104   5.782   1.345  11.242
  1078G11  C0CQ74105   5.688   1.437  11.182
  1078G11  C09374106   5.751   1.418  11.598
  1078G11  C09274107   5.720   1.496  11.812
  1078G11  C08574108   5.992   1.253  11.818
  1078G11  C07S74109   6.156   1.088  11.766
  1078G11  C06F74110   6.365   0.933  11.855
  1078G11  C07O74111   6.177   1.183  12.131
  1078G11  C07N74112   6.121   1.277  12.212
  1078G11  C05D74113   6.437   0.949  12.128
  1078G11  C05C74114   6.496   0.859  12.041
  1078G11  C05N74115   6.620   0.828  12.096
  1078G11  C05M74116   6.772   0.991  12.410
  1078G11  C05I74117   6.745   1.130  12.605
  1078G11  C06174118   6.859   1.231  12.839
  1078G11  C02Q74119   7.064   1.285  12.956
  1078G11  C02O74120   7.350   1.286  12.923
  1078G11  C03Q74121   7.148   1.100  12.691
  1078G11  C03O74122   7.235   1.002  12.489
  1078G11  C03L74123   7.562   0.975  12.361
  1078G11  C02S74124   7.505   1.150  12.690
  1078G11  C02T74125   7.769   1.214  12.653
  1078G11  C03K74126   7.708   1.001  12.345
  1078G11  C03I74127   7.900   1.242  12.635
  1078G11  C03G74128   8.177   1.278  12.628
  1078G11  H00D74129   8.284   1.293  12.622
  1078G11  C03J74130   7.987   1.051  12.334
  1078G11  C03W74131   8.149   0.999  12.106
  1078G11  C04I74132   7.965   0.902  12.000
  1078G11  C04K74133   7.822   0.801  11.785
  1078G11  C04N74134   7.740   0.750  11.684
  1078G11  C04X74135   7.520   0.690  11.601
  1078G11  C05074136   7.290   0.668  11.508
  1078G11  C05W74137   7.193   0.669  11.768
  1078G11  C05S74138   6.820   0.659  11.473
  1078G11  C05R74139   6.894   0.668  11.809
  1078G11  C05O74140   6.713   0.763  12.010
  1078G11  C05B74141   6.469   0.854  11.900
  1078G11  C05A74142   6.629   0.714  11.606
  1078G11  C07R74143   6.333   0.928  11.718
  1078G11  C08N74144   6.256   0.920  11.448
  1078G11  C08M74145   6.205   0.914  11.312
  1078G11  C08L74146   6.274   0.829  11.221
  1078G11  C09174147   6.686   0.720  11.473
  1078G11  C09K74148   6.710   0.781  11.128
  1078G11  H00M74149   6.805   0.830  11.140
  1078G11  C08K74150   6.403   0.780  11.253
  1078G11  C09J74151   6.644   0.757  11.001
  1078G11  C09I74152   6.636   0.810  10.870
  1078G11  C09L74153   6.747   0.833  10.780
  1078G11  H00N74154   6.849   0.816  10.809
  1078G11  C09Q74155   6.710   0.877  10.659
  1078G11  H00O74156   6.787   0.886  10.583
  1078G11  O00B74157   6.586   0.907  10.614
  1078G11  C09G74158   6.479   0.882  10.703
  1078G11  C09F74159   6.353   0.935  10.655
  1078G11  O00A74160   6.370   0.982  10.529
  1078G11  C09P74161   6.254   1.026  10.475
  1078G11  H00P74162   6.237   1.022  10.368
  1078G11  C09O74163   6.158   1.097  10.558
  1078G11  C09D74164   6.127   1.030  10.676
  1078G11  C09C74165   6.009   1.042  10.762
  1078G11  C09N74166   5.906   1.139  10.755
  1078G11  C09T74167   5.935   1.271  10.697
  1078G11  C09S74168   6.022   1.301  10.585
  1078G11  C0CP74169   5.995   1.432  10.553
  1078G11  C0CN74170   5.896   1.489  10.631
  1078G11  C0CO74171   5.861   1.622  10.612
  1078G11  H01474172   5.795   1.676  10.679
  1078G11  C0CZ74173   5.916   1.678  10.498
  1078G11  H01574174   5.894   1.781  10.472
  1078G11  C0D074175   6.006   1.613  10.407
  1078G11  C0G574176   6.057   1.664  10.279
  1078G11  H01F74177   6.025   1.759  10.238
  1078G11  C0G474178   6.140   1.588  10.204
  1078G11  H01G74179   6.174   1.640  10.116
  1078G11  O00H74180   6.188   1.466  10.236
  1078G11  C0D274181   6.140   1.415  10.351
  1078G11  C09V74182   6.168   1.279  10.393
  1078G11  H00Q74183   6.235   1.230  10.324
  1078G11  C0D174184   6.054   1.483  10.439
  1078G11  C09R74185   6.121   1.226  10.517
  1078G11  C09H74186   6.502   0.830  10.828
  1078G11  C09E74187   6.229   0.941  10.729
  1078G11  C09B74188   5.979   0.964  10.876
  1078G11  C08Z74189   6.226   0.838  11.084
  1078G11  C08O74190   6.086   0.991  11.270
  1078G11  C09A74191   5.872   1.008  10.951
  1078G11  C08S74192   5.869   1.238  11.206
  1078G11  C09974193   5.826   1.128  10.878
  1078G11  C09U74194   5.850   1.389  10.724
  1078G11  C0BO74195   5.500   1.682  10.813
  1078G11  C0CL74196   5.678   1.450  11.046
  1078G11  C0D374197   5.616   1.518  11.269
  1078G11  C0D574198   5.481   1.696  11.451
  1078G11  C0BR74199   5.457   1.749  11.043
  1078G11  C0BQ74200   5.450   1.774  10.904
  1078G11  C0BL74201   5.440   1.817  10.624
  1078G11  C0AF74202   5.337   2.047  10.528
  1078G11  C0BH74203   5.271   2.095  10.895
  1078G11  C0BG74204   5.223   2.192  10.980
  1078G11  C0BD74205   5.171   2.329  10.791
  1078G11  C0AG74206   5.281   2.157  10.485
  1078G11  C0AI74207   5.296   2.334  10.314
  1078G11  C0AV74208   5.302   2.594  10.250
  1078G11  C0BB74209   5.082   2.589  10.546
  1078G11  O00C74210   5.257   2.819  10.338
  1078G11  C0BC74211   5.039   2.701  10.615
  1078G11  C0B974212   5.128   2.456  10.741
  1078G11  O00E74213   5.063   2.639  11.056
  1078G11  C0CA74214   5.051   2.618  11.194
  1078G11  O00F74215   5.014   2.710  11.263
  1078G11  C0BF74216   5.175   2.312  10.928
  1078G11  C0C574217   5.089   2.487  11.239
  1078G11  C0C474218   5.061   2.454  11.378
  1078G11  H01174219   5.007   2.522  11.441
  1078G11  C0C874220   5.226   2.168  11.115
  1078G11  C0C274221   5.122   2.335  11.427
  1078G11  C0C374222   5.118   2.291  11.563
  1078G11  C0DY74223   5.046   2.355  11.666
  1078G11  H01674224   5.007   2.455  11.678
  1078G11  C0DX74225   5.045   2.262  11.778
  1078G11  C0DW74226   4.981   2.302  11.894
  1078G11  C0BY74227   5.295   2.028  11.305
  1078G11  C0DB74228   5.164   2.171  11.613
  1078G11  C0CC74229   5.349   1.886  11.492
  1078G11  C0D774230   5.350   1.832  11.766
  1078G11  C0DZ74231   5.138   2.153  11.751
  1078G11  C0DM74232   5.320   1.840  12.041
  1078G11  C0DQ74233   5.104   2.135  12.052
  1078G11  C0DV74234   5.021   2.246  12.018
  1078G11  C0E074235   4.869   2.392  11.924
  1078G11  C0FO74236   4.675   2.404  12.222
  1078G11  C0E374237   4.729   2.375  11.880
  1078G11  H01774238   4.699   2.302  11.807
  1078G11  C0GV74239   4.540   2.374  12.180
  1078G11  C0ES74240   4.730   2.333  12.327
  1078G11  C0GQ74241   4.405   2.258  12.492
  1078G11  C0FJ74242   4.616   2.110  12.754
  1078G11  C0ED74243   4.817   2.181  12.565
  1078G11  C0ER74244   5.003   2.182  12.867
  1078G11  C0EP74245   5.200   2.110  12.783
  1078G11  C0E674246   5.036   2.154  12.436
  1078G11  C0DE74247   5.244   1.940  12.353
  1078G11  C0EA74248   5.404   1.969  12.707
  1078G11  C0DF74249   5.316   1.820  12.366
  1078G11  C08074250   5.604   1.734  12.563
  1078G11  C0DO74251   5.410   1.760  12.276
  1078G11  C0DJ74252   5.601   1.624  12.130
  1078G11  C07K74253   5.791   1.576  12.447
  1078G11  C07W74254   5.782   1.488  12.084
  1078G11  C08374255   6.009   1.347  12.170
  1078G11  C07J74256   5.918   1.526  12.479
  1078G11  C06O74257   6.171   1.414  12.544
  1078G11  C06M74258   6.173   1.298  12.339
  1088G11  C07174259   6.961   0.480   6.191
  1088G11  C07L74260   6.931   0.432   6.324
  1088G11  C07M74261   6.824   0.344   6.337
  1088G11  C07Y74262   6.798   0.287   6.465
  1088G11  C08174263   6.885   0.319   6.575
  1088G11  C08274264   6.861   0.241   6.694
  1088G11  C0DI74265   6.928   0.244   6.829
  1088G11  C0DH74266   7.033   0.326   6.886
  1088G11  C0DG74267   7.052   0.296   7.022
  1088G11  C0E974268   7.175   0.269   7.100
  1088G11  C0E874269   7.119   0.186   7.212
  1088G11  C0E774270   7.164   0.173   7.351
  1088G11  C0EB74271   7.289   0.235   7.384
  1088G11  C0EF74272   7.342   0.248   7.524
  1088G11  C0EE74273   7.287   0.268   7.654
  1088G11  C0FD74274   7.351   0.357   7.747
  1088G11  C0FE74275   7.463   0.442   7.727
  1088G11  H01B74276   7.503   0.444   7.627
  1088G11  C0FF74277   7.532   0.501   7.823
  1088G11  H01A74278   7.624   0.554   7.802
  1088G11  C0FG74279   7.489   0.508   7.956
  1088G11  H01874280   7.530   0.576   8.029
  1088G11  C0FH74281   7.363   0.439   7.988
  1088G11  C0FI74282   7.295   0.434   8.112
  1088G11  H01974283   7.354   0.465   8.197
  1088G11  O00K74284   7.167   0.387   8.127
  1088G11  C0FL74285   7.127   0.298   8.039
  1088G11  C0FK74286   7.188   0.284   7.911
  1088G11  C0FM74287   7.131   0.196   7.822
  1088G11  C0FN74288   7.044   0.100   7.871
  1088G11  C0FP74289   6.976   0.126   7.989
  1088G11  C0GO74290   6.878   0.046   8.037
  1088G11  C0GN74291   6.792   0.075   8.141
  1088G11  C0GR74292   6.825   0.190   8.216
  1088G11  C0GS74293   6.743   0.226   8.324
  1088G11  H01Q74294   6.771   0.313   8.381
  1088G11  C0GT74295   6.627   0.154   8.350
  1088G11  H01O74296   6.569   0.172   8.439
  1088G11  C0GU74297   6.594   0.040   8.273
  1088G11  H01P74298   6.511  -0.022   8.302
  1088G11  O00L74299   6.939   0.261   8.184
  1088G11  C0GM74300   6.674  -0.006   8.170
  1088G11  C0GL74301   6.651  -0.117   8.079
  1088G11  H01R74302   6.563  -0.180   8.076
  1088G11  C0GK74303   6.752  -0.154   7.991
  1088G11  C0GP74304   6.763  -0.248   7.886
  1088G11  C0E274305   6.890  -0.240   7.823
  1088G11  C0E174306   6.878  -0.279   7.685
  1088G11  C0DU74307   6.904  -0.197   7.574
  1088G11  C0DT74308   6.987  -0.086   7.557
  1088G11  C0E474309   7.041  -0.005   7.654
  1088G11  C0E574310   7.103   0.104   7.597
  1088G11  C0DS74311   7.001  -0.015   7.437
  1088G11  C0DR74312   6.925  -0.056   7.330
  1088G11  C0DD74313   6.925  -0.007   7.199
  1088G11  C0DC74314   6.802  -0.063   7.142
  1088G11  C0DP74315   6.731  -0.157   7.235
  1088G11  C0DA74316   6.607  -0.242   7.215
  1088G11  C0D974317   6.525  -0.263   7.090
  1088G11  C0CR74318   6.407  -0.350   7.094
  1088G11  C0C074319   6.368  -0.413   7.209
  1088G11  C0BZ74320   6.266  -0.507   7.216
  1088G11  C0C174321   6.246  -0.583   7.333
  1088G11  C0C774322   6.167  -0.695   7.334
  1088G11  C0C674323   6.144  -0.774   7.451
  1088G11  C0C974324   6.070  -0.888   7.447
  1088G11  C0B874325   6.060  -0.979   7.558
  1088G11  C0B774326   5.999  -1.106   7.552
  1088G11  C0B674327   5.978  -1.217   7.644
  1088G11  C0B574328   5.991  -1.235   7.786
  1088G11  H00Z74329   6.020  -1.160   7.858
  1088G11  C0B474330   5.923  -1.360   7.820
  1088G11  H01074331   5.900  -1.393   7.921
  1088G11  C0B374332   5.865  -1.426   7.701
  1088G11  C0AP74333   5.773  -1.514   7.617
  1088G11  C0AQ74334   5.788  -1.461   7.488
  1088G11  C0AR74335   5.701  -1.478   7.382
  1088G11  C0AS74336   5.722  -1.394   7.282
  1088G11  C0AT74337   5.805  -1.288   7.286
  1088G11  C0BA74338   5.880  -1.258   7.392
  1088G11  C0AU74339   5.807  -1.188   7.186
  1088G11  C0BE74340   5.880  -1.076   7.201
  1088G11  C0BI74341   5.879  -0.986   7.092
  1088G11  C0BJ74342   5.787  -1.008   6.988
  1088G11  C0BK74343   5.777  -0.914   6.885
  1088G11  C0BW74344   5.869  -0.812   6.881
  1088G11  C0BV74345   5.954  -0.784   6.990
  1088G11  C0BU74346   6.040  -0.681   6.992
  1088G11  C0BX74347   6.117  -0.652   7.101
  1088G11  C0BT74348   6.053  -0.608   6.873
  1088G11  C0CD74349   6.148  -0.508   6.871
  1088G11  C0CB74350   6.223  -0.474   6.986
  1088G11  C0CE74351   6.164  -0.437   6.758
  1088G11  C0CK74352   6.081  -0.462   6.644
  1088G11  C0BS74353   5.976  -0.553   6.650
  1088G11  C0CJ74354   5.886  -0.571   6.540
  1088G11  C0BP74355   5.778  -0.662   6.556
  1088G11  C0CI74356   5.680  -0.677   6.462
  1088G11  C0CH74357   5.560  -0.737   6.503
  1088G11  H01274358   5.483  -0.715   6.430
  1088G11  C0BN74359   5.565  -0.835   6.603
  1088G11  C0CG74360   5.466  -0.932   6.612
  1088G11  C0CF74361   5.362  -0.943   6.515
  1088G11  H01374362   5.368  -0.886   6.423
  1088G11  O00G74363   5.264  -1.036   6.525
  1088G11  C0AA74364   5.296  -1.144   6.608
  1088G11  C0A974365   5.208  -1.251   6.597
  1088G11  H00U74366   5.131  -1.240   6.523
  1088G11  C0A874367   5.210  -1.353   6.682
  1088G11  H00V74368   5.133  -1.426   6.660
  1088G11  C0A774369   5.313  -1.369   6.786
  1088G11  C0A674370   5.407  -1.253   6.796
  1088G11  C0A574371   5.515  -1.243   6.884
  1088G11  C0A474372   5.532  -1.340   6.992
  1088G11  C0A374373   5.463  -1.454   7.046
  1088G11  C0A274374   5.351  -1.517   6.994
  1088G11  C0A174375   5.314  -1.650   7.037
  1088G11  C0A074376   5.338  -1.730   7.162
  1088G11  C09Z74377   5.270  -1.859   7.158
  1088G11  C09Y74378   5.268  -1.931   7.274
  1088G11  H00Y74379   5.218  -2.026   7.282
  1088G11  C09X74380   5.353  -1.893   7.383
  1088G11  C09W74381   5.348  -1.979   7.496
  1088G11  H00R74382   5.284  -2.065   7.496
  1088G11  C0AX74383   5.417  -1.951   7.611
  1088G11  H00S74384   5.412  -2.008   7.703
  1088G11  C0AW74385   5.502  -1.842   7.622
  1088G11  H00T74386   5.562  -1.819   7.709
  1088G11  C0AN74387   5.510  -1.754   7.507
  1088G11  C0AO74388   5.598  -1.647   7.506
  1088G11  C0AM74389   5.429  -1.782   7.388
  1088G11  C0B274390   5.177  -1.914   7.055
  1088G11  O00D74391   5.114  -2.022   7.059
  1088G11  C0B174392   5.165  -1.827   6.942
  1088G11  H00W74393   5.100  -1.852   6.859
  1088G11  C0AL74394   5.425  -1.699   7.274
  1088G11  C0AK74395   5.520  -1.597   7.271
  1088G11  C0B074396   5.234  -1.701   6.934
  1088G11  C0AZ74397   5.220  -1.607   6.831
  1088G11  H00X74398   5.157  -1.621   6.744
  1088G11  C0AJ74399   5.539  -1.501   7.158
  1088G11  C0AH74400   5.641  -1.318   7.074
  1088G11  C0AE74401   5.601  -1.128   6.886
  1088G11  C0AD74402   5.582  -1.026   6.801
  1088G11  C0AY74403   5.298  -1.487   6.868
  1088G11  C0AB74404   5.394  -1.146   6.704
  1088G11  C0AC74405   5.480  -1.036   6.710
  1088G11  C0BM74406   5.672  -0.836   6.688
  1088G11  C0CM74407   5.704  -0.624   6.332
  1088G11  C09M74408   5.797  -0.513   6.321
  1088G11  C09874409   5.779  -0.427   6.210
  1088G11  C08R74410   5.868  -0.340   6.139
  1088G11  C08Q74411   5.809  -0.258   6.039
  1088G11  C08P74412   5.855  -0.200   5.910
  1088G11  C08Y74413   5.761  -0.195   5.806
  1088G11  C09774414   5.648  -0.270   5.813
  1088G11  C09674415   5.619  -0.330   5.697
  1088G11  C09074416   5.692  -0.254   5.603
  1088G11  C09574417   5.693  -0.271   5.460
  1088G11  C09474418   5.775  -0.192   5.368
  1088G11  C08J74419   5.898  -0.123   5.390
  1088G11  C08I74420   5.984  -0.143   5.279
  1088G11  C08H74421   6.121  -0.103   5.320
  1088G11  C08G74422   6.113  -0.089   5.470
  1088G11  C08F74423   6.185  -0.020   5.582
  1088G11  C08E74424   6.277   0.083   5.562
  1088G11  C05974425   6.309   0.143   5.439
  1088G11  C05874426   6.393   0.256   5.433
  1088G11  C05774427   6.443   0.319   5.321
  1088G11  C05674428   6.390   0.270   5.202
  1088G11  C05574429   6.292   0.178   5.194
  1088G11  C05474430   6.287   0.123   5.070
  1088G11  C05374431   6.395   0.178   4.993
  1088G11  C05274432   6.459   0.130   4.869
  1088G11  C05174433   6.408   0.007   4.803
  1088G11  C05U74434   6.314  -0.096   4.853
  1088G11  C05T74435   6.249  -0.105   4.983
  1088G11  C06K74436   6.135  -0.199   4.955
  1088G11  H00J74437   6.055  -0.204   5.027
  1088G11  C06L74438   6.151  -0.258   4.828
  1088G11  H00I74439   6.084  -0.325   4.776
  1088G11  C05V74440   6.258  -0.190   4.767
  1088G11  C06J74441   6.297  -0.205   4.635
  1088G11  H00K74442   6.241  -0.268   4.568
  1088G11  C05X74443   6.402  -0.129   4.593
  1088G11  C06I74444   6.463  -0.151   4.465
  1088G11  H00L74445   6.409  -0.218   4.401
  1088G11  C04Z74446   6.582  -0.085   4.417
  1088G11  C06H74447   6.633  -0.115   4.287
  1088G11  H00H74448   6.591  -0.197   4.230
  1088G11  C04Y74449   6.748  -0.039   4.244
  1088G11  C06G74450   6.802  -0.059   4.110
  1088G11  O00974451   6.767  -0.143   4.030
  1088G11  O00874452   6.906   0.020   4.071
  1088G11  C04P74453   6.968   0.102   4.157
  1088G11  C04J74454   7.096   0.165   4.125
  1088G11  C04Q74455   7.174   0.153   4.006
  1088G11  H00E74456   7.138   0.093   3.924
  1088G11  C04M74457   7.299   0.217   3.990
  1088G11  C04R74458   7.380   0.203   3.876
  1088G11  H00F74459   7.339   0.160   3.785
  1088G11  C04S74460   7.506   0.248   3.878
  1088G11  H00G74461   7.562   0.236   3.786
  1088G11  O00774462   7.569   0.306   3.989
  1088G11  C03V74463   7.488   0.325   4.101
  1088G11  C03U74464   7.544   0.386   4.211
  1088G11  O00674465   7.678   0.411   4.209
  1088G11  C03F74466   7.738   0.467   4.325
  1088G11  C03E74467   7.661   0.519   4.429
  1088G11  C03D74468   7.528   0.488   4.431
  1088G11  C03C74469   7.450   0.538   4.537
  1088G11  C03B74470   7.511   0.616   4.637
  1088G11  C03A74471   7.436   0.666   4.746
  1088G11  C03974472   7.308   0.614   4.772
  1088G11  C03874473   7.281   0.670   4.909
  1088G11  C03774474   7.395   0.749   4.941
  1088G11  C03674475   7.402   0.821   5.062
  1088G11  C02R74476   7.510   0.875   5.124
  1088G11  C03574477   7.469   0.905   5.257
  1088G11  C03R74478   7.347   0.850   5.281
  1088G11  C03S74479   7.300   0.811   5.402
  1088G11  C04974480   7.188   0.730   5.404
  1088G11  C04874481   7.136   0.696   5.278
  1088G11  C03P74482   7.197   0.717   5.147
  1088G11  C04774483   7.014   0.628   5.296
  1088G11  C04674484   6.929   0.589   5.192
  1088G11  C04574485   6.949   0.583   5.050
  1088G11  C03T74486   7.063   0.600   4.963
  1088G11  C04474487   7.036   0.552   4.831
  1088G11  C04374488   6.898   0.521   4.827
  1088G11  C04274489   6.885   0.410   4.745
  1088G11  C04174490   7.009   0.406   4.666
  1088G11  C04074491   7.029   0.343   4.546
  1088G11  C03Z74492   7.135   0.355   4.454
  1088G11  C04H74493   7.093   0.274   4.344
  1088G11  C04G74494   6.971   0.212   4.371
  1088G11  C03N74495   7.266   0.415   4.444
  1088G11  C03Y74496   7.334   0.376   4.331
  1088G11  C03X74497   7.279   0.302   4.219
  1088G11  C04F74498   6.931   0.250   4.497
  1088G11  C04E74499   6.809   0.186   4.544
  1088G11  C04O74500   6.747   0.085   4.458
  1088G11  C04D74501   6.738   0.221   4.658
  1088G11  C04V74502   6.626   0.149   4.693
  1088G11  C04W74503   6.564   0.045   4.620
  1088G11  C04C74504   6.768   0.316   4.757
  1088G11  C04L74505   6.653   0.307   4.852
  1088G11  C04U74506   6.646   0.386   4.970
  1088G11  C05Q74507   6.558   0.359   5.074
  1088G11  C05P74508   6.608   0.419   5.189
  1088G11  C04T74509   6.724   0.487   5.163
  1088G11  C04B74510   6.743   0.480   5.025
  1088G11  C03M74511   7.110   0.501   4.718
  1088G11  C04A74512   6.854   0.530   4.961
  1088G11  C05H74513   6.814   0.542   5.252
  1088G11  C05G74514   6.822   0.548   5.395
  1088G11  C05F74515   6.719   0.524   5.482
  1088G11  C05E74516   6.744   0.504   5.621
  1088G11  C05L74517   6.849   0.529   5.719
  1088G11  C05K74518   6.971   0.594   5.688
  1088G11  C05J74519   7.018   0.629   5.557
  1088G11  C06674520   7.058   0.626   5.794
  1088G11  C06574521   7.026   0.574   5.922
  1088G11  C06474522   6.903   0.506   5.952
  1088G11  C06N74523   7.109   0.597   6.032
  1088G11  C06974524   7.233   0.661   6.011
  1088G11  C06P74525   7.323   0.679   6.120
  1088G11  C06R74526   7.451   0.732   6.099
  1088G11  C06B74527   7.486   0.776   5.971
  1088G11  C06S74528   7.613   0.829   5.949
  1088G11  C02G74529   7.646   0.871   5.821
  1088G11  C02F74530   7.776   0.913   5.790
  1088G11  C02774531   7.872   0.911   5.891
  1088G11  C02674532   8.004   0.944   5.862
  1088G11  C00E74533   8.099   0.941   5.962
  1088G11  C00D74534   8.226   0.978   5.934
  1088G11  C00C74535   8.324   0.975   6.034
  1088G11  C00B74536   8.296   0.923   6.159
  1088G11  C01574537   8.161   0.886   6.186
  1088G11  C07F74538   8.131   0.832   6.309
  1088G11  C07E74539   8.002   0.799   6.336
  1088G11  C06W74540   7.903   0.819   6.240
  1088G11  C06V74541   7.933   0.859   6.116
  1088G11  C06X74542   7.772   0.778   6.273
  1088G11  C07B74543   7.741   0.729   6.399
  1088G11  C07C74544   7.842   0.714   6.498
  1088G11  C0FU74545   7.803   0.654   6.620
  1088G11  C0F774546   7.904   0.624   6.707
  1088G11  C0F674547   7.871   0.563   6.831
  1088G11  C0F874548   7.976   0.513   6.911
  1088G11  C0F974549   7.948   0.445   7.031
  1088G11  C0FA74550   8.050   0.406   7.114
  1088G11  C0FZ74551   8.177   0.426   7.075
  1088G11  C0G074552   8.283   0.381   7.159
  1088G11  C0GD74553   8.262   0.318   7.282
  1088G11  C0FC74554   8.127   0.297   7.320
  1088G11  C0GH74555   8.104   0.222   7.435
  1088G11  C0EY74556   7.971   0.194   7.472
  1088G11  C0EX74557   7.941   0.129   7.591
  1088G11  C0EW74558   7.807   0.119   7.633
  1088G11  C0FR74559   7.767   0.047   7.747
  1088G11  H01D74560   7.669   0.028   7.787
  1088G11  C0FS74561   7.864  -0.010   7.827
  1088G11  H01C74562   7.839  -0.049   7.925
  1088G11  C0GJ74563   7.999  -0.002   7.784
  1088G11  H01N74564   8.075  -0.043   7.848
  1088G11  C0EV74565   7.712   0.175   7.555
  1088G11  C0FT74566   7.581   0.187   7.601
  1088G11  H01E74567   7.534   0.164   7.695
  1088G11  C0EU74568   7.741   0.226   7.427
  1088G11  C0ET74569   7.644   0.267   7.340
  1088G11  C0EI74570   7.660   0.325   7.214
  1088G11  C0F174571   7.789   0.346   7.176
  1088G11  C0F074572   7.895   0.308   7.266
  1088G11  C0EH74573   7.545   0.354   7.127
  1088G11  C0EG74574   7.408   0.317   7.163
  1088G11  C0EJ74575   7.572   0.413   7.009
  1088G11  C0F374576   7.706   0.455   6.983
  1088G11  C0EK74577   7.469   0.452   6.921
  1088G11  C0EL74578   7.337   0.403   6.945
  1088G11  C0EM74579   7.244   0.437   6.831
  1088G11  C0EN74580   7.286   0.518   6.727
  1088G11  C07I74581   7.186   0.528   6.630
  1088G11  C07474582   7.221   0.563   6.496
  1088G11  C07374583   7.129   0.539   6.400
  1088G11  C07274584   7.163   0.578   6.271
  1088G11  C07574585   7.351   0.597   6.474
  1088G11  C07674586   7.445   0.603   6.577
  1088G11  C07874587   7.570   0.648   6.557
  1088G11  C07G74588   7.382   0.645   6.351
  1088G11  C07074589   7.508   0.690   6.327
  1088G11  C07Z74590   7.082   0.441   6.663
  1088G11  C07774591   7.420   0.553   6.706
  1088G11  C0EO74592   7.505   0.526   6.808
  1088G11  C0F474593   7.639   0.564   6.780
  1088G11  C0EQ74594   7.511   0.265   7.382
  1088G11  C0FQ74595   8.043   0.066   7.669
  1088G11  C0GI74596   8.172   0.077   7.618
  1088G11  H01L74597   8.241   0.019   7.678
  1088G11  C0EZ74598   7.873   0.240   7.388
  1088G11  C0GG74599   8.207   0.165   7.513
  1088G11  C0GF74600   8.338   0.190   7.474
  1088G11  H01M74601   8.427   0.155   7.525
  1088G11  C0GE74602   8.358   0.269   7.364
  1088G11  H01K74603   8.459   0.279   7.327
  1088G11  O00J74604   8.410   0.396   7.118
  1088G11  C0GA74605   8.445   0.454   6.995
  1088G11  C0G974606   8.576   0.469   6.959
  1088G11  H01H74607   8.655   0.430   7.021
  1088G11  C0G874608   8.619   0.542   6.846
  1088G11  C0G774609   8.751   0.555   6.807
  1088G11  H01I74610   8.831   0.532   6.876
  1088G11  O00I74611   8.783   0.616   6.688
  1088G11  C0G674612   8.679   0.663   6.607
  1088G11  H01J74613   8.708   0.684   6.505
  1088G11  C02D74614   8.545   0.663   6.651
  1088G11  C02C74615   8.447   0.720   6.570
  1088G11  C01774616   8.478   0.802   6.455
  1088G11  C01674617   8.371   0.833   6.365
  1088G11  O00174618   8.604   0.860   6.435
  1088G11  C01874619   8.640   0.905   6.310
  1088G11  C00974620   8.538   0.923   6.214
  1088G11  C00874621   8.558   0.982   6.081
  1088G11  C00774622   8.669   1.004   5.993
  1088G11  C00674623   8.802   0.985   6.036
  1088G11  C00574624   8.913   1.016   5.954
  1088G11  C00474625   8.914   1.021   5.811
  1088G11  C00374626   8.814   1.021   5.706
  1088G11  C00274627   8.849   1.002   5.568
  1088G11  C00P74628   8.756   1.011   5.463
  1088G11  C00O74629   8.797   0.991   5.329
  1088G11  C00N74630   8.700   0.978   5.227
  1088G11  C01074631   8.744   0.943   5.099
  1088G11  C01174632   8.644   0.925   4.997
  1088G11  C01Q74633   8.683   0.874   4.871
  1088G11  C01U74634   8.816   0.836   4.848
  1088G11  C01274635   8.910   0.848   4.955
  1088G11  H00074636   9.010   0.818   4.930
  1088G11  C01V74637   8.837   0.782   4.714
  1088G11  H00774638   8.935   0.745   4.690
  1088G11  O00574639   8.745   0.796   4.612
  1088G11  C01W74640   8.622   0.842   4.641
  1088G11  C03174641   8.533   0.843   4.534
  1088G11  C03274642   8.399   0.883   4.553
  1088G11  H00A74643   8.340   0.887   4.462
  1088G11  C03374644   8.365   0.923   4.679
  1088G11  H00B74645   8.272   0.967   4.711
  1088G11  C01O74646   8.455   0.916   4.793
  1088G11  C01N74647   8.411   0.938   4.920
  1088G11  C01M74648   8.271   0.960   4.961
  1088G11  C01L74649   8.130   0.925   4.922
  1088G11  C01K74650   8.038   0.975   5.016
  1088G11  C01Y74651   7.904   0.942   5.037
  1088G11  C02I74652   7.840   0.871   4.936
  1088G11  C02N74653   7.700   0.843   4.955
  1088G11  C02M74654   7.636   0.774   4.845
  1088G11  C02L74655   7.707   0.725   4.738
  1088G11  C02K74656   7.848   0.734   4.735
  1088G11  C02U74657   7.922   0.674   4.634
  1088G11  C02V74658   7.858   0.615   4.526
  1088G11  C03H74659   7.933   0.559   4.415
  1088G11  H00C74660   8.039   0.565   4.395
  1088G11  C02W74661   8.060   0.663   4.648
  1088G11  C02X74662   8.120   0.736   4.750
  1088G11  C02Y74663   8.246   0.676   4.762
  1088G11  H00874664   8.332   0.687   4.826
  1088G11  C02Z74665   8.265   0.580   4.658
  1088G11  O00474666   8.362   0.519   4.630
  1088G11  O00374667   8.147   0.565   4.598
  1088G11  C02J74668   7.917   0.811   4.836
  1088G11  C01Z74669   7.858   0.970   5.164
  1088G11  C02074670   7.943   1.007   5.266
  1088G11  C01I74671   8.074   1.030   5.251
  1088G11  C01H74672   8.168   1.034   5.348
  1088G11  C00K74673   8.303   1.041   5.318
  1088G11  C01S74674   8.352   1.023   5.189
  1088G11  C01474675   8.481   0.997   5.153
  1088G11  C00J74676   8.393   1.044   5.416
  1088G11  C00I74677   8.350   1.045   5.547
  1088G11  C00H74678   8.211   1.029   5.576
  1088G11  C00G74679   8.172   1.010   5.707
  1088G11  C00S74680   8.447   1.055   5.642
  1088G11  C00T74681   8.394   1.048   5.771
  1088G11  C00U74682   8.485   1.053   5.874
  1088G11  C00R74683   8.584   1.048   5.616
  1088G11  C00L74684   8.531   1.024   5.387
  1088G11  C02874685   8.122   1.027   5.476
  1088G11  C02374686   7.991   1.007   5.505
  1088G11  C02474687   7.949   0.979   5.637
  1088G11  C02174688   7.899   1.001   5.401
  1088G11  C02274689   7.771   0.960   5.427
  1088G11  C02H74690   7.728   0.938   5.560
  1088G11  C03074691   7.601   0.894   5.591
  1088G11  C03474692   7.507   0.888   5.489
  1088G11  C02P74693   7.687   0.939   5.323
  1088G11  C02B74694   7.721   0.942   5.188
  1088G11  C01J74695   8.119   1.028   5.120
  1088G11  C01X74696   8.064   0.825   4.835
  1088G11  C01T74697   8.253   1.011   5.088
  1088G11  H00974698   8.568   0.812   4.437
  1088G11  C01P74699   8.589   0.875   4.769
  1088G11  C01R74700   8.510   0.956   5.019
  1088G11  C00Z74701   8.877   0.898   5.084
  1088G11  O00074702   8.972   0.927   5.173
  1088G11  C00M74703   8.571   1.002   5.257
  1088G11  C00Y74704   8.932   0.970   5.296
  1088G11  C01374705   9.028   0.960   5.395
  1088G11  H00174706   9.129   0.935   5.366
  1088G11  C00Q74707   8.622   1.029   5.486
  1088G11  C00174708   8.988   0.983   5.533
  1088G11  C00074709   9.084   1.001   5.634
  1088G11  H00674710   9.184   1.004   5.594
  1088G11  C00W74711   8.682   1.046   5.723
  1088G11  C01G74712   9.053   1.012   5.766
  1088G11  H00574713   9.144   1.000   5.824
  1088G11  C01C74714   9.023   1.034   6.042
  1088G11  H00274715   9.124   1.063   6.016
  1088G11  C01B74716   8.981   0.999   6.175
  1088G11  C01D74717   9.061   0.979   6.298
  1088G11  H00374718   9.167   0.991   6.309
  1088G11  C01E74719   8.984   0.959   6.406
  1088G11  H00474720   9.033   0.954   6.502
  1088G11  O00274721   8.851   0.925   6.410
  1088G11  C01A74722   8.844   0.973   6.175
  1088G11  C00V74723   8.621   1.036   5.858
  1088G11  C01974724   8.779   0.938   6.294
  1088G11  C02E74725   8.310   0.697   6.610
  1088G11  C0FX74726   8.278   0.628   6.725
  1088G11  C0FW74727   8.139   0.606   6.757
  1088G11  C0GB74728   8.379   0.583   6.805
  1088G11  C0G374729   8.209   0.735   6.523
  1088G11  C07H74730   8.075   0.708   6.552
  1088G11  C0GC74731   8.515   0.596   6.767
  1088G11  C0G274732   8.344   0.513   6.916
  1088G11  C0G174733   8.209   0.488   6.951
  1088G11  C0FB74734   8.025   0.339   7.235
  1088G11  C0F274735   7.815   0.417   7.063
  1088G11  C0FY74736   8.106   0.540   6.877
  1088G11  C0F574737   7.739   0.529   6.866
  1088G11  C0FV74738   8.040   0.643   6.668
  1088G11  C07974739   7.669   0.625   6.654
  1088G11  C07A74740   7.606   0.690   6.429
  1088G11  C06Y74741   7.674   0.785   6.176
  1088G11  C07D74742   7.976   0.746   6.463
  1088G11  C01F74743   8.236   0.804   6.400
  1088G11  C00A74744   8.403   0.902   6.246
  1088G11  C00X74745   8.448   1.020   6.003
  1088G11  C00F74746   8.264   1.017   5.803
  1088G11  C02974747   8.066   0.897   6.087
  1088G11  C02574748   8.042   0.974   5.735
  1088G11  C06U74749   7.838   0.870   6.019
  1088G11  C02A74750   7.820   0.947   5.661
  1088G11  C05Y74751   7.557   0.867   5.719
  1088G11  C05Z74752   7.430   0.812   5.742
  1088G11  C06074753   7.344   0.804   5.635
  1088G11  C06274754   7.216   0.731   5.647
  1088G11  C06T74755   7.704   0.835   6.047
  1088G11  C06A74756   7.394   0.767   5.866
  1088G11  C06Z74757   7.545   0.743   6.203
  1088G11  C06Q74758   7.289   0.637   6.248
  1088G11  C06874759   7.269   0.709   5.881
  1088G11  C06774760   7.182   0.693   5.772
  1088G11  C06374761   6.817   0.482   5.851
  1088G11  C06C74762   6.709   0.393   5.873
  1088G11  C06D74763   6.615   0.363   5.776
  1088G11  C06E74764   6.516   0.269   5.782
  1088G11  C07Q74765   6.496   0.203   5.902
  1088G11  C07P74766   6.585   0.238   6.008
  1088G11  C07T74767   6.569   0.179   6.128
  1088G11  C07U74768   6.651   0.217   6.238
  1088G11  C07V74769   6.625   0.156   6.359
  1088G11  C08474770   6.521   0.062   6.371
  1088G11  C08C74771   6.442   0.025   6.266
  1088G11  C08B74772   6.343  -0.072   6.274
  1088G11  C08A74773   6.269  -0.100   6.167
  1088G11  C08974774   6.275  -0.038   6.051
  1088G11  C08874775   6.192  -0.076   5.946
  1088G11  C08774776   6.217  -0.016   5.821
  1088G11  C08674777   6.317   0.080   5.803
  1088G11  C08X74778   6.083  -0.156   5.966
  1088G11  C08T74779   6.083  -0.233   6.088
  1088G11  C08D74780   6.380   0.052   6.037
  1088G11  C08U74781   6.173  -0.200   6.180
  1088G11  C08V74782   6.158  -0.257   6.299
  1088G11  C0CY74783   6.231  -0.226   6.414
  1088G11  C0CX74784   6.197  -0.287   6.528
  1088G11  C0CW74785   6.274  -0.259   6.638
  1088G11  C0CV74786   6.372  -0.160   6.627
  1088G11  C0D474787   6.398  -0.098   6.503
  1088G11  C0CU74788   6.454  -0.138   6.734
  1088G11  C0CT74789   6.448  -0.213   6.854
  1088G11  C0CS74790   6.351  -0.309   6.863
  1088G11  C0D674791   6.554  -0.048   6.712
  1088G11  C0EC74792   6.573   0.025   6.598
  1088G11  C07X74793   6.679   0.117   6.586
  1088G11  C0DL74794   6.645  -0.033   6.814
  1088G11  C0DK74795   6.749   0.059   6.805
  1088G11  C0DN74796   6.816   0.059   6.919
  1088G11  C0D874797   6.644  -0.098   6.942
  1088G11  C08W74798   6.048  -0.343   6.297
  1088G11  C0CQ74799   6.010  -0.409   6.425
  1088G11  C09374800   6.329  -0.140   6.395
  1088G11  C09274801   6.494   0.003   6.493
  1088G11  C08574802   6.467   0.085   6.144
  1088G11  C07S74803   6.398   0.110   5.916
  1088G11  C06F74804   6.433   0.234   5.673
  1088G11  C07O74805   6.684   0.335   5.993
  1088G11  C07N74806   6.768   0.370   6.100
  1088G11  C05D74807   6.629   0.432   5.658
  1088G11  C05C74808   6.539   0.401   5.560
  1088G11  C05N74809   6.609   0.440   5.443
  1088G11  C05M74810   6.953   0.599   5.425
  1088G11  C05I74811   7.139   0.695   5.530
  1088G11  C06174812   7.381   0.842   5.511
  1088G11  C02Q74813   7.557   0.914   5.360
  1088G11  C02O74814   7.648   0.881   5.084
  1088G11  C03Q74815   7.305   0.804   5.156
  1088G11  C03O74816   7.177   0.657   5.014
  1088G11  C03L74817   7.240   0.531   4.677
  1088G11  C02S74818   7.502   0.738   4.851
  1088G11  C02T74819   7.645   0.650   4.636
  1088G11  C03K74820   7.319   0.493   4.551
  1088G11  C03I74821   7.721   0.601   4.531
  1088G11  C03G74822   7.873   0.490   4.312
  1088G11  H00D74823   7.930   0.449   4.230
  1088G11  C03J74824   7.468   0.418   4.327
  1088G11  C03W74825   7.352   0.286   4.100
  1088G11  C04I74826   7.159   0.247   4.221
  1088G11  C04K74827   6.912   0.124   4.282
  1088G11  C04N74828   6.805   0.055   4.329
  1088G11  C04X74829   6.632   0.017   4.497
  1088G11  C05074830   6.455  -0.029   4.673
  1088G11  C05W74831   6.572   0.193   4.813
  1088G11  C05S74832   6.247  -0.007   5.091
  1088G11  C05R74833   6.449   0.278   5.076
  1088G11  C05O74834   6.555   0.406   5.318
  1088G11  C05B74835   6.447   0.296   5.554
  1088G11  C05A74836   6.273   0.096   5.306
  1088G11  C07R74837   6.339   0.136   5.679
  1088G11  C08N74838   6.143  -0.054   5.713
  1088G11  C08M74839   6.020  -0.120   5.739
  1088G11  C08L74840   5.930  -0.144   5.635
  1088G11  C09174841   6.214  -0.020   5.243
  1088G11  C09K74842   5.937  -0.267   5.219
  1088G11  H00M74843   5.992  -0.346   5.170
  1088G11  C08K74844   5.981  -0.130   5.504
  1088G11  C09J74845   5.796  -0.278   5.256
  1088G11  C09I74846   5.712  -0.398   5.274
  1088G11  C09L74847   5.691  -0.506   5.184
  1088G11  H00N74848   5.747  -0.515   5.091
  1088G11  C09Q74849   5.598  -0.598   5.229
  1088G11  H00O74850   5.570  -0.680   5.164
  1088G11  O00B74851   5.527  -0.594   5.351
  1088G11  C09G74852   5.555  -0.494   5.438
  1088G11  C09F74853   5.500  -0.517   5.567
  1088G11  O00A74854   5.414  -0.625   5.575
  1088G11  C09P74855   5.351  -0.648   5.692
  1088G11  H00P74856   5.243  -0.643   5.693
  1088G11  C09O74857   5.428  -0.635   5.811
  1088G11  C09D74858   5.498  -0.512   5.815
  1088G11  C09C74859   5.554  -0.448   5.932
  1088G11  C09N74860   5.577  -0.498   6.068
  1088G11  C09T74861   5.585  -0.636   6.096
  1088G11  C09S74862   5.499  -0.731   6.032
  1088G11  C0CP74863   5.497  -0.838   6.117
  1088G11  C0CN74864   5.585  -0.825   6.227
  1088G11  C0CO74865   5.613  -0.939   6.301
  1088G11  H01474866   5.684  -0.954   6.381
  1088G11  C0CZ74867   5.539  -1.054   6.276
  1088G11  H01574868   5.567  -1.132   6.345
  1088G11  C0D074869   5.440  -1.067   6.172
  1088G11  C0G574870   5.352  -1.180   6.142
  1088G11  H01F74871   5.370  -1.266   6.206
  1088G11  C0G474872   5.271  -1.177   6.034
  1088G11  H01G74873   5.207  -1.262   6.017
  1088G11  O00H74874   5.264  -1.075   5.945
  1088G11  C0D274875   5.344  -0.967   5.974
  1088G11  C09V74876   5.349  -0.855   5.887
  1088G11  H00Q74877   5.291  -0.858   5.796
  1088G11  C0D174878   5.425  -0.957   6.083
  1088G11  C09R74879   5.429  -0.736   5.911
  1088G11  C09H74880   5.640  -0.387   5.394
  1088G11  C09E74881   5.530  -0.447   5.686
  1088G11  C09B74882   5.617  -0.325   5.929
  1088G11  C08Z74883   5.803  -0.196   5.675
  1088G11  C08O74884   5.985  -0.161   5.873
  1088G11  C09A74885   5.675  -0.285   6.052
  1088G11  C08S74886   6.000  -0.331   6.160
  1088G11  C09974887   5.659  -0.396   6.139
  1088G11  C09U74888   5.630  -0.688   6.226
  1088G11  C0BO74889   5.772  -0.743   6.671
  1088G11  C0CL74890   5.901  -0.497   6.423
  1088G11  C0D374891   6.100  -0.390   6.529
  1088G11  C0D574892   6.260  -0.327   6.756
  1088G11  C0BR74893   5.968  -0.634   6.761
  1088G11  C0BQ74894   5.872  -0.734   6.769
  1088G11  C0BL74895   5.674  -0.922   6.795
  1088G11  C0AF74896   5.701  -1.114   6.981
  1088G11  C0BH74897   5.952  -0.871   7.100
  1088G11  C0BG74898   6.028  -0.842   7.213
  1088G11  C0BD74899   5.955  -1.049   7.313
  1088G11  C0AG74900   5.718  -1.202   7.078
  1088G11  C0AI74901   5.645  -1.410   7.170
  1088G11  C0AV74902   5.604  -1.577   7.382
  1088G11  C0BB74903   5.871  -1.351   7.495
  1088G11  O00C74904   5.676  -1.618   7.626
  1088G11  C0BC74905   5.929  -1.341   7.608
  1088G11  C0B974906   5.950  -1.139   7.421
  1088G11  O00E74907   6.111  -0.934   7.676
  1088G11  C0CA74908   6.183  -0.821   7.689
  1088G11  O00F74909   6.227  -0.791   7.793
  1088G11  C0BF74910   6.018  -0.927   7.322
  1088G11  C0C574911   6.202  -0.745   7.568
  1088G11  C0C474912   6.289  -0.632   7.573
  1088G11  H01174913   6.336  -0.616   7.668
  1088G11  C0C874914   6.106  -0.730   7.216
  1088G11  C0C274915   6.311  -0.560   7.453
  1088G11  C0C374916   6.409  -0.460   7.440
  1088G11  C0DY74917   6.495  -0.425   7.541
  1088G11  H01674918   6.509  -0.461   7.642
  1088G11  C0DX74919   6.579  -0.322   7.473
  1088G11  C0DW74920   6.704  -0.299   7.538
  1088G11  C0BY74921   6.201  -0.544   7.102
  1088G11  C0DB74922   6.439  -0.392   7.325
  1088G11  C0CC74923   6.326  -0.380   6.985
  1088G11  C0D774924   6.540  -0.197   6.963
  1088G11  C0DZ74925   6.558  -0.315   7.329
  1088G11  C0DM74926   6.756  -0.040   7.011
  1088G11  C0DQ74927   6.816  -0.150   7.352
  1088G11  C0DV74928   6.803  -0.218   7.479
  1088G11  C0E074929   6.745  -0.332   7.669
  1088G11  C0FO74930   6.941  -0.118   7.865
  1088G11  C0E374931   6.668  -0.291   7.786
  1088G11  H01774932   6.564  -0.264   7.780
  1088G11  C0GV74933   6.868  -0.084   7.980
  1088G11  C0ES74934   7.010  -0.013   7.794
  1088G11  C0GQ74935   7.011   0.230   8.070
  1088G11  C0FJ74936   7.299   0.359   7.882
  1088G11  C0ED74937   7.172   0.195   7.686
  1088G11  C0ER74938   7.481   0.232   7.512
  1088G11  C0EP74939   7.396   0.279   7.304
  1088G11  C0E674940   7.096   0.093   7.454
  1088G11  C0DE74941   6.999   0.120   7.162
  1088G11  C0EA74942   7.305   0.330   7.068
  1088G11  C0DF74943   6.963   0.193   7.051
  1088G11  C08074944   7.114   0.403   6.796
  1088G11  C0DO74945   6.901   0.155   6.935
  1088G11  C0DJ74946   6.761   0.146   6.692
  1088G11  C07K74947   6.986   0.413   6.556
  1088G11  C07W74948   6.704   0.187   6.473
  1088G11  C08374949   6.747   0.313   6.226
  1088G11  C07J74950   7.010   0.470   6.430
  1088G11  C06O74951   7.077   0.554   6.163
  1088G11  C06M74952   6.882   0.452   6.079
  1098G11  C07174953   3.694   9.154   7.361
  1098G11  C07L74954   3.630   9.031   7.329
  1098G11  C07M74955   3.565   9.014   7.211
  1098G11  C07Y74956   3.516   8.886   7.174
  1098G11  C08174957   3.530   8.774   7.257
  1098G11  C08274958   3.480   8.649   7.212
  1098G11  C0DI74959   3.488   8.512   7.272
  1098G11  C0DH74960   3.524   8.464   7.405
  1098G11  C0DG74961   3.503   8.319   7.413
  1098G11  C0E974962   3.568   8.212   7.486
  1098G11  C0E874963   3.556   8.092   7.393
  1098G11  C0E774964   3.595   7.945   7.415
  1098G11  C0EB74965   3.617   7.910   7.554
  1098G11  C0EF74966   3.635   7.774   7.606
  1098G11  C0EE74967   3.696   7.662   7.556
  1098G11  C0FD74968   3.789   7.592   7.636
  1098G11  C0FE74969   3.862   7.645   7.741
  1098G11  H01B74970   3.844   7.748   7.766
  1098G11  C0FF74971   3.933   7.567   7.833
  1098G11  H01A74972   3.974   7.605   7.926
  1098G11  C0FG74973   3.942   7.436   7.811
  1098G11  H01874974   3.989   7.376   7.888
  1098G11  C0FH74975   3.905   7.383   7.686
  1098G11  C0FI74976   3.938   7.254   7.638
  1098G11  H01974977   4.014   7.208   7.699
  1098G11  O00K74978   3.895   7.202   7.523
  1098G11  C0FL74979   3.809   7.278   7.452
  1098G11  C0FK74980   3.766   7.411   7.484
  1098G11  C0FM74981   3.692   7.488   7.399
  1098G11  C0FN74982   3.640   7.422   7.291
  1098G11  C0FP74983   3.675   7.288   7.259
  1098G11  C0GO74984   3.634   7.223   7.145
  1098G11  C0GN74985   3.690   7.109   7.089
  1098G11  C0GR74986   3.777   7.043   7.176
  1098G11  C0GS74987   3.836   6.926   7.138
  1098G11  H01Q74988   3.907   6.876   7.202
  1098G11  C0GT74989   3.805   6.869   7.014
  1098G11  H01O74990   3.851   6.775   6.985
  1098G11  C0GU74991   3.718   6.939   6.922
  1098G11  H01P74992   3.690   6.905   6.824
  1098G11  O00L74993   3.802   7.088   7.301
  1098G11  C0GM74994   3.657   7.062   6.963
  1098G11  C0GL74995   3.570   7.145   6.882
  1098G11  H01R74996   3.538   7.115   6.783
  1098G11  C0GK74997   3.506   7.255   6.941
  1098G11  C0GP74998   3.421   7.363   6.893
  1098G11  C0E274999   3.380   7.433   7.016
  1098G11  C0E175000   3.354   7.565   6.973
  1098G11  C0DU75001   3.414   7.687   7.024
  1098G11  C0DT75002   3.473   7.711   7.146
  1098G11  C0E475003   3.525   7.617   7.223
  1098G11  C0E575004   3.579   7.689   7.331
  1098G11  C0DS75005   3.507   7.839   7.187
  1098G11  C0DR75006   3.471   7.947   7.100
  1098G11  C0DD75007   3.484   8.087   7.126
  1098G11  C0DC75008   3.445   8.154   6.999
  1098G11  C0DP75009   3.428   8.052   6.888
  1098G11  C0DA75010   3.411   8.071   6.740
  1098G11  C0D975011   3.397   8.193   6.659
  1098G11  C0CR75012   3.385   8.185   6.514
  1098G11  C0C075013   3.393   8.067   6.447
  1098G11  C0BZ75014   3.387   8.046   6.311
  1098G11  C0C175015   3.413   7.923   6.250
  1098G11  C0C775016   3.418   7.912   6.107
  1098G11  C0C675017   3.450   7.786   6.049
  1098G11  C0C975018   3.455   7.782   5.912
  1098G11  C0B875019   3.480   7.659   5.851
  1098G11  C0B775020   3.491   7.641   5.704
  1098G11  C0B675021   3.493   7.526   5.616
  1098G11  C0B575022   3.402   7.414   5.629
  1098G11  H00Z75023   3.333   7.404   5.712
  1098G11  C0B475024   3.382   7.359   5.496
  1098G11  H01075025   3.291   7.304   5.473
  1098G11  C0B375026   3.465   7.433   5.405
  1098G11  C0AP75027   3.435   7.497   5.277
  1098G11  C0AQ75028   3.478   7.630   5.294
  1098G11  C0AR75029   3.422   7.735   5.219
  1098G11  C0AS75030   3.437   7.858   5.274
  1098G11  C0AT75031   3.452   7.873   5.414
  1098G11  C0BA75032   3.495   7.768   5.492
  1098G11  C0AU75033   3.409   7.985   5.478
  1098G11  C0BE75034   3.410   7.991   5.619
  1098G11  C0BI75035   3.369   8.109   5.681
  1098G11  C0BJ75036   3.307   8.206   5.598
  1098G11  C0BK75037   3.261   8.324   5.660
  1098G11  C0BW75038   3.277   8.343   5.794
  1098G11  C0BV75039   3.321   8.240   5.876
  1098G11  C0BU75040   3.332   8.254   6.014
  1098G11  C0BX75041   3.372   8.146   6.094
  1098G11  C0BT75042   3.319   8.374   6.073
  1098G11  C0CD75043   3.337   8.395   6.209
  1098G11  C0CB75044   3.358   8.283   6.292
  1098G11  C0CE75045   3.335   8.521   6.258
  1098G11  C0CK75046   3.322   8.634   6.173
  1098G11  C0BS75047   3.292   8.617   6.039
  1098G11  C0CJ75048   3.269   8.727   5.950
  1098G11  C0BP75049   3.219   8.703   5.824
  1098G11  C0CI75050   3.187   8.807   5.736
  1098G11  C0CH75051   3.100   8.771   5.627
  1098G11  H01275052   3.056   8.855   5.576
  1098G11  C0BN75053   3.103   8.641   5.579
  1098G11  C0CG75054   3.054   8.609   5.445
  1098G11  C0CF75055   2.981   8.704   5.371
  1098G11  H01375056   2.955   8.801   5.413
  1098G11  O00G75057   2.938   8.677   5.242
  1098G11  C0AA75058   2.983   8.566   5.184
  1098G11  C0A975059   2.957   8.558   5.053
  1098G11  H00U75060   2.911   8.644   5.006
  1098G11  C0A875061   2.999   8.450   4.980
  1098G11  H00V75062   2.987   8.464   4.873
  1098G11  C0A775063   3.058   8.336   5.038
  1098G11  C0A675064   3.095   8.348   5.181
  1098G11  C0A575065   3.185   8.265   5.253
  1098G11  C0A475066   3.249   8.148   5.188
  1098G11  C0A375067   3.247   8.079   5.063
  1098G11  C0A275068   3.138   8.097   4.974
  1098G11  C0A175069   3.120   8.017   4.858
  1098G11  C0A075070   3.161   7.880   4.818
  1098G11  C09Z75071   3.128   7.847   4.689
  1098G11  C09Y75072   3.139   7.714   4.647
  1098G11  H00Y75073   3.096   7.691   4.551
  1098G11  C09X75074   3.179   7.615   4.736
  1098G11  C09W75075   3.178   7.481   4.684
  1098G11  H00R75076   3.147   7.463   4.583
  1098G11  C0AX75077   3.233   7.378   4.764
  1098G11  H00S75078   3.242   7.278   4.723
  1098G11  C0AW75079   3.268   7.407   4.896
  1098G11  H00T75080   3.295   7.336   4.972
  1098G11  C0AN75081   3.271   7.543   4.950
  1098G11  C0AO75082   3.320   7.574   5.080
  1098G11  C0AM75083   3.221   7.651   4.865
  1098G11  C0B275084   3.087   7.940   4.583
  1098G11  O00D75085   3.067   7.915   4.470
  1098G11  C0B175086   3.041   8.064   4.632
  1098G11  H00W75087   3.034   8.147   4.563
  1098G11  C0AL75088   3.223   7.789   4.902
  1098G11  C0AK75089   3.286   7.818   5.026
  1098G11  C0B075090   3.063   8.098   4.763
  1098G11  C0AZ75091   3.031   8.223   4.822
  1098G11  H00X75092   2.976   8.297   4.766
  1098G11  C0AJ75093   3.306   7.950   5.086
  1098G11  C0AH75094   3.343   8.082   5.268
  1098G11  C0AE75095   3.217   8.283   5.385
  1098G11  C0AD75096   3.167   8.392   5.455
  1098G11  C0AY75097   3.074   8.224   4.954
  1098G11  C0AB75098   3.056   8.467   5.251
  1098G11  C0AC75099   3.090   8.488   5.384
  1098G11  C0BM75100   3.164   8.538   5.657
  1098G11  C0CM75101   3.243   8.931   5.762
  1098G11  C09M75102   3.268   8.970   5.902
  1098G11  C09875103   3.253   9.109   5.934
  1098G11  C08R75104   3.280   9.187   6.054
  1098G11  C08Q75105   3.242   9.320   6.053
  1098G11  C08P75106   3.283   9.447   6.111
  1098G11  C08Y75107   3.275   9.561   6.030
  1098G11  C09775108   3.258   9.546   5.893
  1098G11  C09675109   3.336   9.632   5.817
  1098G11  C09075110   3.374   9.727   5.913
  1098G11  C09575111   3.475   9.831   5.893
  1098G11  C09475112   3.515   9.932   5.986
  1098G11  C08J75113   3.512   9.932   6.125
  1098G11  C08I75114   3.629   9.995   6.172
  1098G11  C08H75115   3.647   9.951   6.310
  1098G11  C08G75116   3.561   9.829   6.324
  1098G11  C08F75117   3.519   9.738   6.431
  1098G11  C08E75118   3.558   9.764   6.565
  1098G11  C05975119   3.601   9.889   6.620
  1098G11  C05875120   3.626   9.905   6.759
  1098G11  C05775121   3.679  10.018   6.814
  1098G11  C05675122   3.683  10.132   6.731
  1098G11  C05575123   3.638  10.146   6.604
  1098G11  C05475124   3.713  10.249   6.536
  1098G11  C05375125   3.815  10.306   6.628
  1098G11  C05275126   3.924  10.392   6.600
  1098G11  C05175127   3.948  10.440   6.464
  1098G11  C05U75128   3.903  10.380   6.342
  1098G11  C05T75129   3.823  10.260   6.309
  1098G11  C06K75130   3.770  10.289   6.177
  1098G11  H00J75131   3.684  10.234   6.143
  1098G11  C06L75132   3.844  10.394   6.120
  1098G11  H00I75133   3.844  10.419   6.015
  1098G11  C05V75134   3.920  10.458   6.226
  1098G11  C06J75135   3.999  10.574   6.216
  1098G11  H00K75136   4.020  10.628   6.125
  1098G11  C05X75137   4.061  10.622   6.328
  1098G11  C06I75138   4.155  10.725   6.331
  1098G11  H00L75139   4.181  10.773   6.238
  1098G11  C04Z75140   4.234  10.761   6.436
  1098G11  C06H75141   4.334  10.866   6.419
  1098G11  H00H75142   4.346  10.919   6.326
  1098G11  C04Y75143   4.435  10.877   6.520
  1098G11  C06G75144   4.554  10.962   6.493
  1098G11  O00975145   4.581  11.026   6.384
  1098G11  O00875146   4.646  10.965   6.587
  1098G11  C04P75147   4.641  10.892   6.703
  1098G11  C04J75148   4.752  10.881   6.796
  1098G11  C04Q75149   4.879  10.936   6.793
  1098G11  H00E75150   4.897  11.001   6.709
  1098G11  C04M75151   4.981  10.907   6.888
  1098G11  C04R75152   5.117  10.941   6.871
  1098G11  H00F75153   5.161  10.997   6.790
  1098G11  C04S75154   5.209  10.901   6.963
  1098G11  H00G75155   5.310  10.931   6.943
  1098G11  O00775156   5.182  10.821   7.073
  1098G11  C03V75157   5.049  10.791   7.087
  1098G11  C03U75158   5.017  10.706   7.197
  1098G11  O00675159   5.116  10.687   7.284
  1098G11  C03F75160   5.103  10.597   7.377
  1098G11  C03E75161   4.983  10.531   7.398
  1098G11  C03D75162   4.874  10.560   7.313
  1098G11  C03C75163   4.752  10.498   7.341
  1098G11  C03B75164   4.743  10.422   7.459
  1098G11  C03A75165   4.626  10.345   7.476
  1098G11  C03975166   4.523  10.343   7.382
  1098G11  C03875167   4.434  10.245   7.434
  1098G11  C03775168   4.487  10.204   7.557
  1098G11  C03675169   4.417  10.125   7.638
  1098G11  C02R75170   4.468  10.064   7.751
  1098G11  C03575171   4.368   9.965   7.778
  1098G11  C03R75172   4.266   9.970   7.688
  1098G11  C03S75173   4.194   9.859   7.654
  1098G11  C04975174   4.125   9.865   7.537
  1098G11  C04875175   4.147   9.975   7.454
  1098G11  C03P75176   4.251  10.074   7.476
  1098G11  C04775177   4.059   9.981   7.346
  1098G11  C04675178   4.051  10.084   7.257
  1098G11  C04575179   4.124  10.197   7.235
  1098G11  C03T75180   4.246  10.241   7.288
  1098G11  C04475181   4.287  10.355   7.214
  1098G11  C04375182   4.175  10.393   7.133
  1098G11  C04275183   4.214  10.474   7.027
  1098G11  C04175184   4.357  10.502   7.062
  1098G11  C04075185   4.435  10.608   7.005
  1098G11  C03Z75186   4.568  10.640   7.036
  1098G11  C04H75187   4.607  10.726   6.928
  1098G11  C04G75188   4.498  10.752   6.850
  1098G11  C03N75189   4.666  10.611   7.139
  1098G11  C03Y75190   4.790  10.682   7.121
  1098G11  C03X75191   4.822  10.767   7.008
  1098G11  C04F75192   4.395  10.671   6.879
  1098G11  C04E75193   4.291  10.653   6.783
  1098G11  C04O75194   4.306  10.719   6.655
  1098G11  C04D75195   4.170  10.576   6.801
  1098G11  C04V75196   4.102  10.537   6.685
  1098G11  C04W75197   4.120  10.594   6.554
  1098G11  C04C75198   4.124  10.497   6.911
  1098G11  C04L75199   4.021  10.415   6.845
  1098G11  C04U75200   3.953  10.317   6.917
  1098G11  C05Q75201   3.851  10.232   6.870
  1098G11  C05P75202   3.835  10.128   6.952
  1098G11  C04T75203   3.923  10.137   7.062
  1098G11  C04B75204   3.998  10.253   7.038
  1098G11  C03M75205   4.401  10.435   7.186
  1098G11  C04A75206   4.094  10.282   7.125
  1098G11  C05H75207   3.949  10.051   7.165
  1098G11  C05G75208   3.897   9.928   7.199
  1098G11  C05F75209   3.778   9.873   7.151
  1098G11  C05E75210   3.748   9.730   7.165
  1098G11  C05L75211   3.783   9.619   7.255
  1098G11  C05K75212   3.877   9.634   7.360
  1098G11  C05J75213   3.963   9.752   7.388
  1098G11  C06675214   3.891   9.521   7.445
  1098G11  C06575215   3.827   9.396   7.419
  1098G11  C06475216   3.745   9.384   7.306
  1098G11  C06N75217   3.843   9.283   7.505
  1098G11  C06975218   3.925   9.294   7.613
  1098G11  C06P75219   3.945   9.184   7.696
  1098G11  C06R75220   4.034   9.182   7.800
  1098G11  C06B75221   4.095   9.303   7.833
  1098G11  C06S75222   4.189   9.305   7.930
  1098G11  C02G75223   4.256   9.423   7.965
  1098G11  C02F75224   4.349   9.429   8.071
  1098G11  C02775225   4.370   9.317   8.153
  1098G11  C02675226   4.470   9.322   8.247
  1098G11  C00E75227   4.492   9.209   8.326
  1098G11  C00D75228   4.601   9.209   8.413
  1098G11  C00C75229   4.633   9.088   8.468
  1098G11  C00B75230   4.568   8.970   8.446
  1098G11  C01575231   4.459   8.970   8.361
  1098G11  C07F75232   4.388   8.855   8.337
  1098G11  C07E75233   4.288   8.857   8.241
  1098G11  C06W75234   4.262   8.973   8.167
  1098G11  C06V75235   4.328   9.089   8.194
  1098G11  C06X75236   4.172   8.965   8.063
  1098G11  C07B75237   4.112   8.846   8.023
  1098G11  C07C75238   4.135   8.737   8.100
  1098G11  C0FU75239   4.073   8.616   8.066
  1098G11  C0F775240   4.090   8.502   8.146
  1098G11  C0F675241   4.020   8.384   8.116
  1098G11  C0F875242   4.025   8.281   8.209
  1098G11  C0F975243   3.938   8.174   8.192
  1098G11  C0FA75244   3.931   8.076   8.288
  1098G11  C0FZ75245   4.015   8.086   8.397
  1098G11  C0G075246   4.011   7.984   8.489
  1098G11  C0GD75247   3.916   7.879   8.486
  1098G11  C0FC75248   3.833   7.870   8.373
  1098G11  C0GH75249   3.746   7.763   8.357
  1098G11  C0EY75250   3.678   7.749   8.233
  1098G11  C0EX75251   3.590   7.646   8.211
  1098G11  C0EW75252   3.554   7.614   8.076
  1098G11  C0FR75253   3.473   7.500   8.044
  1098G11  H01D75254   3.442   7.471   7.945
  1098G11  C0FS75255   3.428   7.418   8.151
  1098G11  H01C75256   3.359   7.336   8.133
  1098G11  C0GJ75257   3.472   7.447   8.285
  1098G11  H01N75258   3.441   7.377   8.360
  1098G11  C0EV75259   3.589   7.702   7.971
  1098G11  C0FT75260   3.581   7.670   7.832
  1098G11  H01E75261   3.563   7.570   7.795
  1098G11  C0EU75262   3.636   7.824   8.004
  1098G11  C0ET75263   3.655   7.925   7.911
  1098G11  C0EI75264   3.714   8.048   7.934
  1098G11  C0F175265   3.783   8.056   8.051
  1098G11  C0F075266   3.770   7.959   8.152
  1098G11  C0EH75267   3.716   8.143   7.831
  1098G11  C0EG75268   3.654   8.122   7.703
  1098G11  C0EJ75269   3.785   8.257   7.860
  1098G11  C0F375270   3.863   8.265   7.980
  1098G11  C0EK75271   3.763   8.367   7.781
  1098G11  C0EL75272   3.679   8.359   7.664
  1098G11  C0EM75273   3.664   8.493   7.604
  1098G11  C0EN75274   3.727   8.605   7.656
  1098G11  C07I75275   3.713   8.713   7.573
  1098G11  C07475276   3.773   8.831   7.596
  1098G11  C07375277   3.741   8.938   7.520
  1098G11  C07275278   3.803   9.056   7.552
  1098G11  C07575279   3.851   8.835   7.712
  1098G11  C07675280   3.877   8.720   7.786
  1098G11  C07875281   3.965   8.721   7.891
  1098G11  C07G75282   3.913   8.951   7.742
  1098G11  C07075283   4.002   8.952   7.843
  1098G11  C07Z75284   3.621   8.687   7.472
  1098G11  C07775285   3.817   8.602   7.758
  1098G11  C0EO75286   3.838   8.483   7.816
  1098G11  C0F475287   3.919   8.489   7.927
  1098G11  C0EQ75288   3.617   7.899   7.783
  1098G11  C0FQ75289   3.559   7.554   8.311
  1098G11  C0GI75290   3.623   7.574   8.434
  1098G11  H01L75291   3.591   7.515   8.518
  1098G11  C0EZ75292   3.694   7.843   8.130
  1098G11  C0GG75293   3.720   7.671   8.458
  1098G11  C0GF75294   3.789   7.689   8.578
  1098G11  H01M75295   3.767   7.629   8.665
  1098G11  C0GE75296   3.893   7.784   8.587
  1098G11  H01K75297   3.947   7.800   8.679
  1098G11  O00J75298   4.091   7.984   8.602
  1098G11  C0GA75299   4.183   8.086   8.611
  1098G11  C0G975300   4.285   8.083   8.709
  1098G11  H01H75301   4.282   8.001   8.779
  1098G11  C0G875302   4.381   8.190   8.727
  1098G11  C0G775303   4.461   8.198   8.838
  1098G11  H01I75304   4.485   8.114   8.901
  1098G11  O00I75305   4.520   8.315   8.878
  1098G11  C0G675306   4.541   8.400   8.775
  1098G11  H01J75307   4.618   8.475   8.791
  1098G11  C02D75308   4.470   8.400   8.652
  1098G11  C02C75309   4.470   8.505   8.555
  1098G11  C01775310   4.570   8.615   8.553
  1098G11  C01675311   4.539   8.736   8.491
  1098G11  O00175312   4.700   8.605   8.612
  1098G11  C01875313   4.781   8.717   8.624
  1098G11  C00975314   4.741   8.842   8.571
  1098G11  C00875315   4.813   8.967   8.575
  1098G11  C00775316   4.943   9.010   8.615
  1098G11  C00675317   5.043   8.916   8.656
  1098G11  C00575318   5.175   8.958   8.698
  1098G11  C00475319   5.247   9.079   8.672
  1098G11  C00375320   5.204   9.204   8.610
  1098G11  C00275321   5.305   9.305   8.574
  1098G11  C00P75322   5.266   9.429   8.520
  1098G11  C00O75323   5.368   9.525   8.485
  1098G11  C00N75324   5.339   9.643   8.421
  1098G11  C01075325   5.437   9.729   8.383
  1098G11  C01175326   5.415   9.845   8.309
  1098G11  C01Q75327   5.516   9.938   8.273
  1098G11  C01U75328   5.648   9.906   8.302
  1098G11  C01275329   5.672   9.782   8.366
  1098G11  H00075330   5.775   9.753   8.377
  1098G11  C01V75331   5.750   9.994   8.254
  1098G11  H00775332   5.855   9.974   8.268
  1098G11  O00575333   5.723  10.106   8.189
  1098G11  C01W75334   5.592  10.145   8.164
  1098G11  C03175335   5.551  10.269   8.098
  1098G11  C03275336   5.417  10.300   8.075
  1098G11  H00A75337   5.384  10.384   8.016
  1098G11  C03375338   5.321  10.219   8.128
  1098G11  H00B75339   5.216  10.237   8.109
  1098G11  C01O75340   5.353  10.089   8.171
  1098G11  C01N75341   5.255   9.995   8.198
  1098G11  C01M75342   5.111  10.018   8.166
  1098G11  C01L75343   5.029  10.094   8.062
  1098G11  C01K75344   4.897  10.050   8.083
  1098G11  C01Y75345   4.792  10.049   7.989
  1098G11  C02I75346   4.812  10.133   7.878
  1098G11  C02N75347   4.699  10.151   7.798
  1098G11  C02M75348   4.718  10.236   7.687
  1098G11  C02L75349   4.837  10.307   7.662
  1098G11  C02K75350   4.949  10.277   7.738
  1098G11  C02U75351   5.072  10.319   7.689
  1098G11  C02V75352   5.083  10.416   7.589
  1098G11  C03H75353   5.204  10.489   7.565
  1098G11  H00C75354   5.294  10.490   7.625
  1098G11  C02W75355   5.189  10.260   7.744
  1098G11  C02X75356   5.172  10.174   7.852
  1098G11  C02Y75357   5.298  10.106   7.846
  1098G11  H00875358   5.338  10.013   7.884
  1098G11  C02Z75359   5.383  10.183   7.757
  1098G11  O00475360   5.505  10.184   7.744
  1098G11  O00375361   5.307  10.259   7.686
  1098G11  C02J75362   4.941  10.188   7.847
  1098G11  C01Z75363   4.683   9.969   8.019
  1098G11  C02075364   4.681   9.876   8.124
  1098G11  C01I75365   4.787   9.873   8.217
  1098G11  C01H75366   4.819   9.755   8.287
  1098G11  C00K75367   4.946   9.730   8.338
  1098G11  C01S75368   5.050   9.813   8.303
  1098G11  C01475369   5.182   9.789   8.329
  1098G11  C00J75370   4.972   9.608   8.396
  1098G11  C00I75371   4.875   9.515   8.409
  1098G11  C00H75372   4.750   9.534   8.357
  1098G11  C00G75373   4.656   9.431   8.356
  1098G11  C00S75374   4.904   9.392   8.476
  1098G11  C00T75375   4.805   9.308   8.492
  1098G11  C00U75376   4.831   9.193   8.563
  1098G11  C00R75377   5.032   9.365   8.527
  1098G11  C00L75378   5.103   9.579   8.433
  1098G11  C02875379   4.723   9.654   8.291
  1098G11  C02375380   4.607   9.662   8.208
  1098G11  C02475381   4.521   9.553   8.193
  1098G11  C02175382   4.589   9.775   8.129
  1098G11  C02275383   4.494   9.766   8.032
  1098G11  C02H75384   4.408   9.657   8.018
  1098G11  C03075385   4.313   9.645   7.919
  1098G11  C03475386   4.288   9.755   7.847
  1098G11  C02P75387   4.488   9.864   7.938
  1098G11  C02B75388   4.582   9.964   7.928
  1098G11  C01J75389   4.890   9.968   8.194
  1098G11  C01X75390   5.057  10.154   7.931
  1098G11  C01T75391   5.019   9.934   8.235
  1098G11  H00975392   5.629  10.339   8.073
  1098G11  C01P75393   5.485  10.055   8.203
  1098G11  C01R75394   5.282   9.879   8.279
  1098G11  C00Z75395   5.570   9.700   8.413
  1098G11  O00075396   5.601   9.579   8.465
  1098G11  C00M75397   5.210   9.675   8.399
  1098G11  C00Y75398   5.504   9.495   8.501
  1098G11  C01375399   5.539   9.377   8.566
  1098G11  H00175400   5.642   9.373   8.597
  1098G11  C00Q75401   5.131   9.459   8.499
  1098G11  C00175402   5.440   9.280   8.605
  1098G11  C00075403   5.470   9.168   8.684
  1098G11  H00675404   5.570   9.142   8.715
  1098G11  C00W75405   5.069   9.242   8.587
  1098G11  C01G75406   5.383   9.067   8.710
  1098G11  H00575407   5.423   8.984   8.766
  1098G11  C01C75408   5.232   8.847   8.776
  1098G11  H00275409   5.330   8.825   8.816
  1098G11  C01B75410   5.129   8.743   8.774
  1098G11  C01D75411   5.141   8.607   8.817
  1098G11  H00375412   5.223   8.573   8.879
  1098G11  C01E75413   5.033   8.533   8.812
  1098G11  H00475414   5.034   8.432   8.850
  1098G11  O00275415   4.916   8.570   8.754
  1098G11  C01A75416   5.013   8.783   8.705
  1098G11  C00V75417   4.960   9.147   8.595
  1098G11  C01975418   4.903   8.695   8.693
  1098G11  C02E75419   4.371   8.509   8.455
  1098G11  C0FX75420   4.288   8.399   8.438
  1098G11  C0FW75421   4.191   8.400   8.336
  1098G11  C0GB75422   4.284   8.297   8.530
  1098G11  C0G375423   4.351   8.627   8.385
  1098G11  C07H75424   4.250   8.623   8.285
  1098G11  C0GC75425   4.375   8.297   8.640
  1098G11  C0G275426   4.193   8.194   8.517
  1098G11  C0G175427   4.108   8.191   8.409
  1098G11  C0FB75428   3.841   7.972   8.276
  1098G11  C0F275429   3.861   8.161   8.072
  1098G11  C0FY75430   4.107   8.293   8.315
  1098G11  C0F575431   3.936   8.377   8.003
  1098G11  C0FV75432   4.178   8.510   8.258
  1098G11  C07975433   3.987   8.606   7.959
  1098G11  C07A75434   4.023   8.841   7.922
  1098G11  C06Y75435   4.153   9.076   7.980
  1098G11  C07D75436   4.224   8.738   8.208
  1098G11  C01F75437   4.428   8.737   8.404
  1098G11  C00A75438   4.615   8.850   8.502
  1098G11  C00X75439   4.748   9.082   8.547
  1098G11  C00F75440   4.680   9.315   8.425
  1098G11  C02975441   4.427   9.092   8.295
  1098G11  C02575442   4.544   9.440   8.271
  1098G11  C06U75443   4.300   9.203   8.120
  1098G11  C02A75444   4.426   9.545   8.095
  1098G11  C05Y75445   4.229   9.533   7.891
  1098G11  C05Z75446   4.135   9.534   7.789
  1098G11  C06075447   4.123   9.644   7.702
  1098G11  C06275448   4.040   9.644   7.590
  1098G11  C06T75449   4.214   9.197   8.010
  1098G11  C06A75450   4.072   9.417   7.754
  1098G11  C06Z75451   4.066   9.069   7.868
  1098G11  C06Q75452   3.886   9.064   7.664
  1098G11  C06875453   3.990   9.412   7.641
  1098G11  C06775454   3.969   9.528   7.565
  1098G11  C06375455   3.726   9.493   7.219
  1098G11  C06C75456   3.652   9.475   7.105
  1098G11  C06D75457   3.627   9.581   7.011
  1098G11  C06E75458   3.574   9.569   6.882
  1098G11  C07Q75459   3.535   9.441   6.850
  1098G11  C07P75460   3.547   9.336   6.939
  1098G11  C07T75461   3.503   9.211   6.902
  1098G11  C07U75462   3.506   9.107   6.995
  1098G11  C07V75463   3.458   8.979   6.956
  1098G11  C08475464   3.433   8.960   6.820
  1098G11  C08C75465   3.443   9.062   6.728
  1098G11  C08B75466   3.416   9.039   6.597
  1098G11  C08A75467   3.407   9.149   6.511
  1098G11  C08975468   3.434   9.278   6.548
  1098G11  C08875469   3.418   9.384   6.452
  1098G11  C08775470   3.458   9.512   6.490
  1098G11  C08675471   3.501   9.535   6.620
  1098G11  C08X75472   3.382   9.361   6.317
  1098G11  C08T75473   3.381   9.219   6.278
  1098G11  C08D75474   3.462   9.301   6.678
  1098G11  C08U75475   3.389   9.124   6.377
  1098G11  C08V75476   3.372   8.996   6.333
  1098G11  C0CY75477   3.376   8.887   6.417
  1098G11  C0CX75478   3.351   8.768   6.362
  1098G11  C0CW75479   3.359   8.661   6.447
  1098G11  C0CV75480   3.381   8.682   6.582
  1098G11  C0D475481   3.396   8.810   6.637
  1098G11  C0CU75482   3.383   8.573   6.666
  1098G11  C0CT75483   3.381   8.440   6.622
  1098G11  C0CS75484   3.367   8.426   6.481
  1098G11  C0D675485   3.390   8.604   6.799
  1098G11  C0EC75486   3.405   8.728   6.858
  1098G11  C07X75487   3.431   8.746   6.992
  1098G11  C0DL75488   3.386   8.495   6.887
  1098G11  C0DK75489   3.402   8.516   7.020
  1098G11  C0DN75490   3.419   8.391   7.073
  1098G11  C0D875491   3.384   8.357   6.851
  1098G11  C08W75492   3.347   9.002   6.197
  1098G11  C0CQ75493   3.313   8.874   6.136
  1098G11  C09375494   3.398   8.911   6.549
  1098G11  C09275495   3.406   8.837   6.773
  1098G11  C08575496   3.464   9.195   6.768
  1098G11  C07S75497   3.494   9.428   6.718
  1098G11  C06F75498   3.570   9.673   6.795
  1098G11  C07O75499   3.604   9.353   7.067
  1098G11  C07N75500   3.612   9.249   7.153
  1098G11  C05D75501   3.655   9.705   7.060
  1098G11  C05C75502   3.651   9.809   6.973
  1098G11  C05N75503   3.724   9.911   7.023
  1098G11  C05M75504   3.970   9.877   7.310
  1098G11  C05I75505   4.045   9.757   7.503
  1098G11  C06175506   4.200   9.752   7.738
  1098G11  C02Q75507   4.385   9.854   7.855
  1098G11  C02O75508   4.588  10.059   7.827
  1098G11  C03Q75509   4.308  10.060   7.595
  1098G11  C03O75510   4.309  10.179   7.391
  1098G11  C03L75511   4.521  10.437   7.268
  1098G11  C02S75512   4.614  10.255   7.584
  1098G11  C02T75513   4.849  10.393   7.547
  1098G11  C03K75514   4.646  10.514   7.246
  1098G11  C03I75515   4.969  10.449   7.509
  1098G11  C03G75516   5.211  10.576   7.457
  1098G11  H00D75517   5.305  10.628   7.441
  1098G11  C03J75518   4.893  10.649   7.211
  1098G11  C03W75519   4.951  10.821   6.993
  1098G11  C04I75520   4.732  10.789   6.905
  1098G11  C04K75521   4.523  10.819   6.728
  1098G11  C04N75522   4.423  10.805   6.635
  1098G11  C04X75523   4.221  10.691   6.550
  1098G11  C05075524   4.036  10.553   6.449
  1098G11  C05W75525   3.999  10.445   6.707
  1098G11  C05S75526   3.745  10.186   6.410
  1098G11  C05R75527   3.786  10.234   6.749
  1098G11  C05O75528   3.748  10.021   6.937
  1098G11  C05B75529   3.610   9.798   6.841
  1098G11  C05A75530   3.633  10.015   6.545
  1098G11  C07R75531   3.542   9.659   6.660
  1098G11  C08N75532   3.457   9.617   6.394
  1098G11  C08M75533   3.406   9.596   6.266
  1098G11  C08L75534   3.408   9.705   6.172
  1098G11  C09175535   3.679  10.047   6.414
  1098G11  C09K75536   3.723   9.995   6.062
  1098G11  H00M75537   3.830  10.006   6.066
  1098G11  C08K75538   3.483   9.819   6.203
  1098G11  C09J75539   3.637   9.991   5.947
  1098G11  C09I75540   3.652   9.952   5.807
  1098G11  C09L75541   3.733  10.003   5.706
  1098G11  H00N75542   3.795  10.086   5.737
  1098G11  C09Q75543   3.718   9.946   5.585
  1098G11  H00O75544   3.775   9.979   5.499
  1098G11  O00B75545   3.639   9.833   5.556
  1098G11  C09G75546   3.553   9.784   5.650
  1098G11  C09F75547   3.472   9.673   5.605
  1098G11  O00A75548   3.498   9.640   5.477
  1098G11  C09P75549   3.413   9.554   5.413
  1098G11  H00P75550   3.389   9.575   5.310
  1098G11  C09O75551   3.355   9.447   5.492
  1098G11  C09D75552   3.325   9.478   5.627
  1098G11  C09C75553   3.254   9.392   5.719
  1098G11  C09N75554   3.230   9.249   5.725
  1098G11  C09T75555   3.284   9.161   5.629
  1098G11  C09S75556   3.304   9.198   5.492
  1098G11  C0CP75557   3.300   9.074   5.424
  1098G11  C0CN75558   3.297   8.964   5.513
  1098G11  C0CO75559   3.314   8.835   5.452
  1098G11  H01475560   3.332   8.747   5.512
  1098G11  C0CZ75561   3.308   8.827   5.310
  1098G11  H01575562   3.325   8.724   5.281
  1098G11  C0D075563   3.325   8.940   5.224
  1098G11  C0G575564   3.360   8.943   5.085
  1098G11  H01F75565   3.376   8.849   5.034
  1098G11  C0G475566   3.393   9.060   5.024
  1098G11  H01G75567   3.430   9.065   4.923
  1098G11  O00H75568   3.382   9.186   5.084
  1098G11  C0D275569   3.345   9.185   5.210
  1098G11  C09V75570   3.345   9.310   5.280
  1098G11  H00Q75571   3.357   9.398   5.220
  1098G11  C0D175572   3.317   9.070   5.285
  1098G11  C09R75573   3.330   9.324   5.427
  1098G11  C09H75574   3.557   9.846   5.781
  1098G11  C09E75575   3.373   9.606   5.681
  1098G11  C09B75576   3.216   9.430   5.843
  1098G11  C08Z75577   3.354   9.675   6.041
  1098G11  C08O75578   3.358   9.463   6.228
  1098G11  C09A75579   3.171   9.329   5.927
  1098G11  C08S75580   3.355   9.142   6.160
  1098G11  C09975581   3.183   9.210   5.855
  1098G11  C09U75582   3.261   9.018   5.645
  1098G11  C0BO75583   3.205   8.569   5.783
  1098G11  C0CL75584   3.287   8.862   5.999
  1098G11  C0D375585   3.326   8.757   6.224
  1098G11  C0D575586   3.351   8.536   6.397
  1098G11  C0BR75587   3.287   8.489   5.992
  1098G11  C0BQ75588   3.254   8.466   5.858
  1098G11  C0BL75589   3.190   8.418   5.593
  1098G11  C0AF75590   3.296   8.197   5.462
  1098G11  C0BH75591   3.374   8.125   5.817
  1098G11  C0BG75592   3.407   8.017   5.894
  1098G11  C0BD75593   3.449   7.883   5.696
  1098G11  C0AG75594   3.354   8.089   5.408
  1098G11  C0AI75595   3.373   7.961   5.208
  1098G11  C0AV75596   3.347   7.712   5.103
  1098G11  C0BB75597   3.529   7.651   5.422
  1098G11  O00C75598   3.349   7.468   5.170
  1098G11  C0BC75599   3.541   7.525   5.485
  1098G11  C0B975600   3.491   7.764   5.633
  1098G11  O00E75601   3.498   7.547   5.929
  1098G11  C0CA75602   3.493   7.545   6.068
  1098G11  O00F75603   3.504   7.439   6.126
  1098G11  C0BF75604   3.440   7.897   5.837
  1098G11  C0C575605   3.467   7.674   6.124
  1098G11  C0C475606   3.450   7.677   6.264
  1098G11  H01175607   3.458   7.583   6.318
  1098G11  C0C875608   3.393   8.024   6.034
  1098G11  C0C275609   3.430   7.806   6.325
  1098G11  C0C375610   3.417   7.828   6.466
  1098G11  C0DY75611   3.422   7.730   6.563
  1098G11  H01675612   3.441   7.624   6.560
  1098G11  C0DX75613   3.406   7.800   6.687
  1098G11  C0DW75614   3.391   7.723   6.806
  1098G11  C0BY75615   3.372   8.159   6.232
  1098G11  C0DB75616   3.406   7.951   6.527
  1098G11  C0CC75617   3.368   8.298   6.432
  1098G11  C0D775618   3.392   8.326   6.708
  1098G11  C0DZ75619   3.410   7.944   6.666
  1098G11  C0DM75620   3.393   8.288   6.980
  1098G11  C0DQ75621   3.440   7.923   6.964
  1098G11  C0DV75622   3.420   7.785   6.930
  1098G11  C0E075623   3.363   7.583   6.837
  1098G11  C0FO75624   3.470   7.397   7.117
  1098G11  C0E375625   3.431   7.465   6.787
  1098G11  H01775626   3.485   7.460   6.694
  1098G11  C0GV75627   3.528   7.278   7.077
  1098G11  C0ES75628   3.540   7.479   7.210
  1098G11  C0GQ75629   3.759   7.213   7.343
  1098G11  C0FJ75630   3.827   7.462   7.601
  1098G11  C0ED75631   3.658   7.622   7.432
  1098G11  C0ER75632   3.599   7.773   7.742
  1098G11  C0EP75633   3.624   7.983   7.677
  1098G11  C0E675634   3.567   7.832   7.315
  1098G11  C0DE75635   3.500   8.146   7.264
  1098G11  C0EA75636   3.638   8.228   7.613
  1098G11  C0DF75637   3.457   8.275   7.288
  1098G11  C08075638   3.596   8.546   7.490
  1098G11  C0DO75639   3.456   8.390   7.204
  1098G11  C0DJ75640   3.433   8.643   7.081
  1098G11  C07K75641   3.600   8.793   7.375
  1098G11  C07W75642   3.464   8.870   7.042
  1098G11  C08375643   3.556   9.124   7.121
  1098G11  C07J75644   3.655   8.920   7.412
  1098G11  C06O75645   3.776   9.169   7.473
  1098G11  C06M75646   3.683   9.262   7.276
  1108G11  C07175647  10.131   7.912   5.960
  1108G11  C07L75648  10.223   7.807   5.983
  1108G11  C07M75649  10.345   7.801   5.917
  1108G11  C07Y75650  10.438   7.704   5.939
  1108G11  C08175651  10.419   7.604   6.042
  1108G11  C08275652  10.526   7.513   6.067
  1108G11  C0DI75653  10.524   7.388   6.154
  1108G11  C0DH75654  10.427   7.327   6.242
  1108G11  C0DG75655  10.479   7.216   6.316
  1108G11  C0E975656  10.425   7.085   6.355
  1108G11  C0E875657  10.539   6.994   6.333
  1108G11  C0E775658  10.558   6.859   6.387
  1108G11  C0EB75659  10.458   6.797   6.464
  1108G11  C0EF75660  10.467   6.680   6.544
  1108G11  C0EE75661  10.568   6.635   6.627
  1108G11  C0FD75662  10.539   6.603   6.762
  1108G11  C0FE75663  10.434   6.657   6.842
  1108G11  H01B75664  10.366   6.729   6.798
  1108G11  C0FF75665  10.394   6.591   6.958
  1108G11  H01A75666  10.298   6.600   7.007
  1108G11  C0FG75667  10.482   6.492   7.004
  1108G11  H01875668  10.455   6.441   7.095
  1108G11  C0FH75669  10.607   6.467   6.943
  1108G11  C0FI75670  10.703   6.378   6.998
  1108G11  H01975671  10.676   6.322   7.086
  1108G11  O00K75672  10.836   6.371   6.965
  1108G11  C0FL75673  10.851   6.416   6.835
  1108G11  C0FK75674  10.756   6.486   6.758
  1108G11  C0FM75675  10.779   6.521   6.624
  1108G11  C0FN75676  10.893   6.474   6.560
  1108G11  C0FP75677  10.998   6.418   6.638
  1108G11  C0GO75678  11.124   6.388   6.584
  1108G11  C0GN75679  11.230   6.342   6.655
  1108G11  C0GR75680  11.199   6.312   6.792
  1108G11  C0GS75681  11.302   6.281   6.872
  1108G11  H01Q75682  11.283   6.242   6.971
  1108G11  C0GT75683  11.433   6.265   6.825
  1108G11  H01O75684  11.502   6.229   6.901
  1108G11  C0GU75685  11.459   6.288   6.688
  1108G11  H01P75686  11.558   6.276   6.646
  1108G11  O00L75687  11.072   6.324   6.849
  1108G11  C0GM75688  11.355   6.322   6.598
  1108G11  C0GL75689  11.363   6.348   6.457
  1108G11  H01R75690  11.461   6.348   6.413
  1108G11  C0GK75691  11.253   6.377   6.378
  1108G11  C0GP75692  11.233   6.416   6.240
  1108G11  C0E275693  11.082   6.430   6.234
  1108G11  C0E175694  11.065   6.537   6.148
  1108G11  C0DU75695  10.971   6.643   6.169
  1108G11  C0DT75696  10.859   6.662   6.252
  1108G11  C0E475697  10.830   6.579   6.361
  1108G11  C0E575698  10.723   6.641   6.422
  1108G11  C0DS75699  10.784   6.780   6.262
  1108G11  C0DR75700  10.825   6.887   6.180
  1108G11  C0DD75701  10.773   7.018   6.189
  1108G11  C0DC75702  10.871   7.092   6.099
  1108G11  C0DP75703  10.983   7.014   6.058
  1108G11  C0DA75704  11.099   7.040   5.964
  1108G11  C0D975705  11.113   7.149   5.861
  1108G11  C0CR75706  11.212   7.136   5.759
  1108G11  C0C075707  11.308   7.036   5.769
  1108G11  C0BZ75708  11.402   7.007   5.672
  1108G11  C0C175709  11.488   6.897   5.687
  1108G11  C0C775710  11.569   6.869   5.581
  1108G11  C0C675711  11.654   6.751   5.583
  1108G11  C0C975712  11.733   6.721   5.473
  1108G11  C0B875713  11.809   6.603   5.473
  1108G11  C0B775714  11.884   6.557   5.364
  1108G11  C0B675715  11.970   6.447   5.343
  1108G11  C0B575716  12.061   6.384   5.437
  1108G11  H00Z75717  12.050   6.389   5.544
  1108G11  C0B475718  12.182   6.342   5.360
  1108G11  H01075719  12.280   6.315   5.397
  1108G11  C0B375720  12.153   6.356   5.218
  1108G11  C0AP75721  12.213   6.386   5.092
  1108G11  C0AQ75722  12.117   6.473   5.032
  1108G11  C0AR75723  12.170   6.587   4.961
  1108G11  C0AS75724  12.082   6.688   4.946
  1108G11  C0AT75725  11.976   6.710   5.032
  1108G11  C0BA75726  11.942   6.617   5.124
  1108G11  C0AU75727  11.915   6.834   5.045
  1108G11  C0BE75728  11.828   6.860   5.148
  1108G11  C0BI75729  11.758   6.980   5.147
  1108G11  C0BJ75730  11.791   7.083   5.057
  1108G11  C0BK75731  11.733   7.207   5.062
  1108G11  C0BW75732  11.634   7.233   5.158
  1108G11  C0BV75733  11.607   7.132   5.254
  1108G11  C0BU75734  11.513   7.158   5.361
  1108G11  C0BX75735  11.499   7.069   5.464
  1108G11  C0BT75736  11.439   7.276   5.355
  1108G11  C0CD75737  11.344   7.295   5.449
  1108G11  C0CB75738  11.329   7.206   5.555
  1108G11  C0CE75739  11.268   7.407   5.443
  1108G11  C0CK75740  11.285   7.506   5.337
  1108G11  C0BS75741  11.384   7.488   5.242
  1108G11  C0CJ75742  11.402   7.582   5.142
  1108G11  C0BP75743  11.515   7.566   5.058
  1108G11  C0CI75744  11.558   7.665   4.971
  1108G11  C0CH75745  11.693   7.658   4.932
  1108G11  H01275746  11.722   7.748   4.880
  1108G11  C0BN75747  11.764   7.536   4.925
  1108G11  C0CG75748  11.888   7.525   4.861
  1108G11  C0CF75749  11.945   7.638   4.786
  1108G11  H01375750  11.908   7.738   4.802
  1108G11  O00G75751  12.064   7.635   4.736
  1108G11  C0AA75752  12.129   7.510   4.737
  1108G11  C0A975753  12.262   7.516   4.695
  1108G11  H00U75754  12.306   7.608   4.658
  1108G11  C0A875755  12.344   7.397   4.698
  1108G11  H00V75756  12.445   7.422   4.668
  1108G11  C0A775757  12.290   7.273   4.740
  1108G11  C0A675758  12.155   7.266   4.789
  1108G11  C0A575759  12.088   7.155   4.845
  1108G11  C0A475760  12.136   7.021   4.826
  1108G11  C0A375761  12.258   6.953   4.785
  1108G11  C0A275762  12.382   7.024   4.773
  1108G11  C0A175763  12.501   6.954   4.740
  1108G11  C0A075764  12.555   6.813   4.744
  1108G11  C09Z75765  12.686   6.795   4.697
  1108G11  C09Y75766  12.748   6.671   4.714
  1108G11  H00Y75767  12.849   6.663   4.678
  1108G11  C09X75768  12.694   6.568   4.797
  1108G11  C09W75769  12.766   6.444   4.815
  1108G11  H00R75770  12.864   6.443   4.769
  1108G11  C0AX75771  12.722   6.340   4.906
  1108G11  H00S75772  12.782   6.250   4.916
  1108G11  C0AW75773  12.601   6.365   4.969
  1108G11  H00T75774  12.563   6.297   5.044
  1108G11  C0AN75775  12.515   6.479   4.933
  1108G11  C0AO75776  12.383   6.491   4.975
  1108G11  C0AM75777  12.567   6.587   4.852
  1108G11  C0B275778  12.766   6.899   4.639
  1108G11  O00D75779  12.877   6.881   4.595
  1108G11  C0B175780  12.713   7.031   4.633
  1108G11  H00W75781  12.764   7.112   4.583
  1108G11  C0AL75782  12.489   6.701   4.810
  1108G11  C0AK75783  12.350   6.697   4.837
  1108G11  C0B075784  12.589   7.052   4.689
  1108G11  C0AZ75785  12.529   7.180   4.690
  1108G11  H00X75786  12.585   7.263   4.649
  1108G11  C0AJ75787  12.256   6.809   4.812
  1108G11  C0AH75788  12.053   6.915   4.865
  1108G11  C0AE75789  11.962   7.170   4.903
  1108G11  C0AD75790  11.901   7.292   4.915
  1108G11  C0AY75791  12.391   7.166   4.738
  1108G11  C0AB75792  12.081   7.389   4.798
  1108G11  C0AC75793  11.953   7.400   4.847
  1108G11  C0BM75794  11.714   7.430   4.993
  1108G11  C0CM75795  11.461   7.765   4.937
  1108G11  C09M75796  11.358   7.798   5.029
  1108G11  C09875797  11.311   7.932   5.029
  1108G11  C08R75798  11.195   8.003   5.083
  1108G11  C08Q75799  11.180   8.138   5.054
  1108G11  C08P75800  11.067   8.235   5.040
  1108G11  C08Y75801  11.084   8.334   4.939
  1108G11  C09775802  11.182   8.314   4.844
  1108G11  C09675803  11.130   8.351   4.717
  1108G11  C09075804  11.014   8.432   4.742
  1108G11  C09575805  10.920   8.478   4.644
  1108G11  C09475806  10.805   8.559   4.671
  1108G11  C08J75807  10.751   8.588   4.798
  1108G11  C08I75808  10.613   8.607   4.772
  1108G11  C08H75809  10.534   8.585   4.892
  1108G11  C08G75810  10.622   8.499   4.978
  1108G11  C08F75811  10.613   8.430   5.105
  1108G11  C08E75812  10.512   8.460   5.198
  1108G11  C05975813  10.416   8.565   5.193
  1108G11  C05875814  10.325   8.585   5.300
  1108G11  C05775815  10.221   8.678   5.300
  1108G11  C05675816  10.211   8.756   5.186
  1108G11  C05575817  10.314   8.772   5.093
  1108G11  C05475818  10.261   8.821   4.971
  1108G11  C05375819  10.119   8.834   4.990
  1108G11  C05275820  10.011   8.857   4.895
  1108G11  C05175821  10.041   8.870   4.753
  1108G11  C05U75822  10.169   8.841   4.681
  1108G11  C05T75823  10.285   8.773   4.729
  1108G11  C06K75824  10.382   8.810   4.627
  1108G11  H00J75825  10.489   8.799   4.634
  1108G11  C06L75826  10.318   8.868   4.514
  1108G11  H00I75827  10.372   8.894   4.424
  1108G11  C05V75828  10.187   8.893   4.553
  1108G11  C06J75829  10.078   8.952   4.484
  1108G11  H00K75830  10.100   8.998   4.389
  1108G11  C05X75831   9.952   8.965   4.534
  1108G11  C06I75832   9.839   9.010   4.459
  1108G11  H00L75833   9.857   9.056   4.363
  1108G11  C04Z75834   9.703   9.001   4.505
  1108G11  C06H75835   9.590   9.019   4.422
  1108G11  H00H75836   9.598   9.036   4.315
  1108G11  C04Y75837   9.459   9.017   4.478
  1108G11  C06G75838   9.350   9.035   4.390
  1108G11  O00975839   9.358   9.051   4.271
  1108G11  O00875840   9.227   9.045   4.445
  1108G11  C04P75841   9.204   9.027   4.579
  1108G11  C04J75842   9.070   9.030   4.636
  1108G11  C04Q75843   8.945   9.038   4.568
  1108G11  H00E75844   8.951   9.052   4.461
  1108G11  C04M75845   8.824   9.027   4.637
  1108G11  C04R75846   8.697   9.041   4.581
  1108G11  H00F75847   8.694   9.062   4.475
  1108G11  C04S75848   8.587   9.034   4.655
  1108G11  H00G75849   8.492   9.042   4.604
  1108G11  O00775850   8.586   9.014   4.792
  1108G11  C03V75851   8.707   9.011   4.847
  1108G11  C03U75852   8.708   8.993   4.984
  1108G11  O00675853   8.587   8.985   5.050
  1108G11  C03F75854   8.588   8.924   5.170
  1108G11  C03E75855   8.701   8.900   5.243
  1108G11  C03D75856   8.827   8.929   5.194
  1108G11  C03C75857   8.942   8.892   5.262
  1108G11  C03B75858   8.920   8.832   5.387
  1108G11  C03A75859   9.034   8.807   5.469
  1108G11  C03975860   9.166   8.829   5.417
  1108G11  C03875861   9.246   8.779   5.530
  1108G11  C03775862   9.160   8.747   5.636
  1108G11  C03675863   9.199   8.699   5.753
  1108G11  C02R75864   9.122   8.658   5.863
  1108G11  C03575865   9.219   8.594   5.941
  1108G11  C03R75866   9.341   8.599   5.890
  1108G11  C03S75867   9.447   8.510   5.911
  1108G11  C04975868   9.551   8.520   5.822
  1108G11  C04875869   9.542   8.606   5.711
  1108G11  C03P75870   9.424   8.674   5.670
  1108G11  C04775871   9.668   8.611   5.645
  1108G11  C04675872   9.696   8.698   5.539
  1108G11  C04575873   9.612   8.769   5.459
  1108G11  C03T75874   9.475   8.781   5.453
  1108G11  C04475875   9.447   8.859   5.344
  1108G11  C04375876   9.565   8.909   5.287
  1108G11  C04275877   9.556   8.926   5.143
  1108G11  C04175878   9.407   8.914   5.130
  1108G11  C04075879   9.340   8.955   5.010
  1108G11  C03Z75880   9.198   8.972   4.990
  1108G11  C04H75881   9.185   8.998   4.853
  1108G11  C04G75882   9.306   8.988   4.796
  1108G11  C03N75883   9.075   8.951   5.062
  1108G11  C03Y75884   8.955   8.980   4.991
  1108G11  C03X75885   8.951   9.007   4.848
  1108G11  C04F75886   9.405   8.967   4.886
  1108G11  C04E75887   9.536   8.954   4.833
  1108G11  C04O75888   9.553   8.976   4.694
  1108G11  C04D75889   9.653   8.925   4.913
  1108G11  C04V75890   9.771   8.912   4.850
  1108G11  C04W75891   9.802   8.945   4.717
  1108G11  C04C75892   9.670   8.915   5.049
  1108G11  C04L75893   9.814   8.891   5.069
  1108G11  C04U75894   9.869   8.856   5.197
  1108G11  C05Q75895   9.996   8.819   5.220
  1108G11  C05P75896  10.001   8.747   5.335
  1108G11  C04T75897   9.876   8.748   5.393
  1108G11  C04B75898   9.796   8.823   5.311
  1108G11  C03M75899   9.336   8.885   5.251
  1108G11  C04A75900   9.661   8.834   5.343
  1108G11  C05H75901   9.828   8.686   5.506
  1108G11  C05G75902   9.891   8.590   5.590
  1108G11  C05F75903  10.028   8.565   5.597
  1108G11  C05E75904  10.066   8.432   5.647
  1108G11  C05L75905  10.011   8.327   5.735
  1108G11  C05K75906   9.880   8.336   5.795
  1108G11  C05J75907   9.777   8.435   5.780
  1108G11  C06675908   9.860   8.232   5.891
  1108G11  C06575909   9.951   8.126   5.914
  1108G11  C06475910  10.068   8.115   5.842
  1108G11  C06N75911   9.922   8.021   6.006
  1108G11  C06975912   9.804   8.022   6.077
  1108G11  C06P75913   9.776   7.920   6.168
  1108G11  C06R75914   9.645   7.910   6.227
  1108G11  C06B75915   9.551   8.008   6.208
  1108G11  C06S75916   9.429   7.999   6.273
  1108G11  C02G75917   9.334   8.099   6.253
  1108G11  C02F75918   9.204   8.083   6.300
  1108G11  C02775919   9.173   7.965   6.370
  1108G11  C02675920   9.042   7.952   6.417
  1108G11  C00E75921   9.003   7.832   6.478
  1108G11  C00D75922   8.869   7.817   6.517
  1108G11  C00C75923   8.835   7.692   6.564
  1108G11  C00B75924   8.916   7.582   6.565
  1108G11  C01575925   9.047   7.601   6.533
  1108G11  C07F75926   9.135   7.496   6.535
  1108G11  C07E75927   9.268   7.512   6.497
  1108G11  C06W75928   9.309   7.634   6.445
  1108G11  C06V75929   9.224   7.742   6.439
  1108G11  C06X75930   9.443   7.654   6.415
  1108G11  C07B75931   9.538   7.549   6.424
  1108G11  C07C75932   9.490   7.425   6.469
  1108G11  C0FU75933   9.589   7.325   6.491
  1108G11  C0F775934   9.554   7.205   6.541
  1108G11  C0F675935   9.649   7.103   6.557
  1108G11  C0F875936   9.601   6.981   6.598
  1108G11  C0F975937   9.697   6.880   6.617
  1108G11  C0FA75938   9.650   6.756   6.665
  1108G11  C0FZ75939   9.515   6.737   6.703
  1108G11  C0G075940   9.471   6.620   6.763
  1108G11  C0GD75941   9.562   6.521   6.804
  1108G11  C0FC75942   9.696   6.535   6.760
  1108G11  C0GH75943   9.785   6.428   6.770
  1108G11  C0EY75944   9.915   6.442   6.730
  1108G11  C0EX75945  10.011   6.337   6.750
  1108G11  C0EW75946  10.143   6.359   6.715
  1108G11  C0FR75947  10.237   6.264   6.761
  1108G11  H01D75948  10.341   6.284   6.743
  1108G11  C0FS75949  10.207   6.141   6.814
  1108G11  H01C75950  10.285   6.067   6.819
  1108G11  C0GJ75951  10.069   6.119   6.845
  1108G11  H01N75952  10.047   6.022   6.888
  1108G11  C0EV75953  10.182   6.473   6.655
  1108G11  C0FT75954  10.310   6.488   6.599
  1108G11  H01E75955  10.387   6.413   6.588
  1108G11  C0EU75956  10.096   6.581   6.636
  1108G11  C0ET75957  10.131   6.699   6.571
  1108G11  C0EI75958  10.049   6.809   6.553
  1108G11  C0F175959   9.918   6.792   6.595
  1108G11  C0F075960   9.872   6.672   6.657
  1108G11  C0EH75961  10.100   6.930   6.499
  1108G11  C0EG75962  10.241   6.948   6.457
  1108G11  C0EJ75963  10.010   7.039   6.483
  1108G11  C0F375964   9.873   7.015   6.518
  1108G11  C0EK75965  10.048   7.160   6.430
  1108G11  C0EL75966  10.185   7.178   6.393
  1108G11  C0EM75967  10.202   7.308   6.328
  1108G11  C0EN75968  10.104   7.407   6.335
  1108G11  C07I75969  10.125   7.516   6.247
  1108G11  C07475970  10.040   7.623   6.226
  1108G11  C07375971  10.079   7.722   6.146
  1108G11  C07275972   9.986   7.823   6.123
  1108G11  C07575973   9.918   7.609   6.291
  1108G11  C07675974   9.885   7.489   6.351
  1108G11  C07875975   9.759   7.470   6.394
  1108G11  C07G75976   9.827   7.712   6.269
  1108G11  C07075977   9.699   7.691   6.319
  1108G11  C07Z75978  10.253   7.502   6.200
  1108G11  C07775979   9.972   7.383   6.368
  1108G11  C0EO75980   9.949   7.261   6.424
  1108G11  C0F475981   9.817   7.244   6.460
  1108G11  C0EQ75982  10.258   6.709   6.520
  1108G11  C0FQ75983   9.976   6.216   6.810
  1108G11  C0GI75984   9.840   6.202   6.838
  1108G11  H01L75985   9.802   6.113   6.887
  1108G11  C0EZ75986   9.964   6.567   6.682
  1108G11  C0GG75987   9.743   6.303   6.823
  1108G11  C0GF75988   9.615   6.293   6.870
  1108G11  H01M75989   9.571   6.202   6.909
  1108G11  C0GE75990   9.532   6.400   6.869
  1108G11  H01K75991   9.432   6.394   6.909
  1108G11  O00J75992   9.338   6.588   6.765
  1108G11  C0GA75993   9.246   6.690   6.752
  1108G11  C0G975994   9.112   6.657   6.779
  1108G11  H01H75995   9.094   6.552   6.796
  1108G11  C0G875996   9.012   6.749   6.754
  1108G11  C0G775997   8.874   6.717   6.760
  1108G11  H01I75998   8.846   6.616   6.786
  1108G11  O00I75999   8.784   6.816   6.730
  1108G11  C0G676000   8.833   6.939   6.694
  1108G11  H01J76001   8.753   7.003   6.662
  1108G11  C02D76002   8.965   6.981   6.690
  1108G11  C02C76003   9.010   7.110   6.649
  1108G11  C01776004   8.923   7.221   6.641
  1108G11  C01676005   8.962   7.353   6.611
  1108G11  O00176006   8.792   7.203   6.670
  1108G11  C01876007   8.692   7.293   6.643
  1108G11  C00976008   8.727   7.426   6.615
  1108G11  C00876009   8.643   7.542   6.599
  1108G11  C00776010   8.502   7.562   6.584
  1108G11  C00676011   8.408   7.457   6.601
  1108G11  C00576012   8.269   7.480   6.578
  1108G11  C00476013   8.194   7.597   6.540
  1108G11  C00376014   8.238   7.724   6.493
  1108G11  C00276015   8.136   7.809   6.437
  1108G11  C00P76016   8.173   7.932   6.378
  1108G11  C00O76017   8.084   8.006   6.306
  1108G11  C00N76018   8.116   8.124   6.240
  1108G11  C01076019   8.032   8.188   6.151
  1108G11  C01176020   8.064   8.309   6.088
  1108G11  C01Q76021   7.969   8.366   6.003
  1108G11  C01U76022   7.836   8.315   5.994
  1108G11  C01276023   7.802   8.199   6.067
  1108G11  H00076024   7.707   8.149   6.054
  1108G11  C01V76025   7.754   8.381   5.910
  1108G11  H00776026   7.655   8.340   5.903
  1108G11  O00576027   7.786   8.490   5.839
  1108G11  C01W76028   7.912   8.540   5.847
  1108G11  C03176029   7.937   8.660   5.781
  1108G11  C03276030   8.066   8.714   5.804
  1108G11  H00A76031   8.099   8.807   5.761
  1108G11  C03376032   8.164   8.650   5.878
  1108G11  H00B76033   8.256   8.706   5.889
  1108G11  C01O76034   8.140   8.526   5.940
  1108G11  C01N76035   8.233   8.456   6.008
  1108G11  C01M76036   8.374   8.504   6.012
  1108G11  C01L76037   8.484   8.573   5.938
  1108G11  C01K76038   8.603   8.566   6.015
  1108G11  C01Y76039   8.733   8.574   5.963
  1108G11  C02I76040   8.748   8.636   5.837
  1108G11  C02N76041   8.880   8.673   5.800
  1108G11  C02M76042   8.895   8.738   5.670
  1108G11  C02L76043   8.784   8.749   5.581
  1108G11  C02K76044   8.652   8.711   5.628
  1108G11  C02U76045   8.549   8.711   5.530
  1108G11  C02V76046   8.561   8.789   5.415
  1108G11  C03H76047   8.451   8.821   5.340
  1108G11  H00C76048   8.351   8.783   5.359
  1108G11  C02W76049   8.440   8.630   5.550
  1108G11  C02X76050   8.427   8.584   5.679
  1108G11  C02Y76051   8.318   8.487   5.663
  1108G11  H00876052   8.266   8.430   5.739
  1108G11  C02Z76053   8.248   8.511   5.539
  1108G11  O00476054   8.139   8.467   5.502
  1108G11  O00376055   8.330   8.608   5.475
  1108G11  C02J76056   8.633   8.654   5.758
  1108G11  C01Z76057   8.834   8.526   6.041
  1108G11  C02076058   8.808   8.438   6.145
  1108G11  C01I76059   8.679   8.413   6.185
  1108G11  C01H76060   8.649   8.296   6.248
  1108G11  C00K76061   8.512   8.266   6.264
  1108G11  C01S76062   8.414   8.326   6.183
  1108G11  C01476063   8.284   8.285   6.178
  1108G11  C00J76064   8.476   8.147   6.328
  1108G11  C00I76065   8.577   8.074   6.386
  1108G11  C00H76066   8.708   8.107   6.372
  1108G11  C00G76067   8.809   8.025   6.418
  1108G11  C00S76068   8.537   7.956   6.445
  1108G11  C00T76069   8.638   7.882   6.497
  1108G11  C00U76070   8.606   7.764   6.560
  1108G11  C00R76071   8.402   7.904   6.451
  1108G11  C00L76072   8.346   8.101   6.326
  1108G11  C02876073   8.743   8.221   6.305
  1108G11  C02376074   8.875   8.252   6.281
  1108G11  C02476075   8.980   8.165   6.322
  1108G11  C02176076   8.907   8.357   6.195
  1108G11  C02276077   9.035   8.372   6.156
  1108G11  C02H76078   9.133   8.288   6.197
  1108G11  C03076079   9.268   8.308   6.153
  1108G11  C03476080   9.304   8.415   6.073
  1108G11  C02P76081   9.059   8.482   6.073
  1108G11  C02B76082   8.958   8.558   6.009
  1108G11  C01J76083   8.578   8.492   6.128
  1108G11  C01X76084   8.501   8.607   5.799
  1108G11  C01T76085   8.448   8.447   6.116
  1108G11  H00976086   7.867   8.707   5.714
  1108G11  C01P76087   8.010   8.478   5.933
  1108G11  C01R76088   8.198   8.355   6.092
  1108G11  C00Z76089   7.898   8.138   6.150
  1108G11  O00076090   7.856   8.031   6.227
  1108G11  C00M76091   8.248   8.170   6.248
  1108G11  C00Y76092   7.950   7.965   6.298
  1108G11  C01376093   7.910   7.852   6.367
  1108G11  H00176094   7.803   7.835   6.357
  1108G11  C00Q76095   8.306   7.979   6.383
  1108G11  C00176096   7.996   7.771   6.437
  1108G11  C00076097   7.959   7.655   6.514
  1108G11  H00676098   7.855   7.641   6.539
  1108G11  C00W76099   8.370   7.779   6.501
  1108G11  C01G76100   8.054   7.569   6.562
  1108G11  H00576101   8.018   7.485   6.618
  1108G11  C01C76102   8.219   7.344   6.576
  1108G11  H00276103   8.118   7.325   6.542
  1108G11  C01B76104   8.318   7.253   6.614
  1108G11  C01D76105   8.305   7.115   6.632
  1108G11  H00376106   8.207   7.071   6.620
  1108G11  C01E76107   8.416   7.048   6.672
  1108G11  H00476108   8.408   6.940   6.681
  1108G11  O00276109   8.541   7.111   6.685
  1108G11  C01A76110   8.437   7.318   6.621
  1108G11  C00V76111   8.479   7.701   6.554
  1108G11  C01976112   8.557   7.245   6.647
  1108G11  C02E76113   9.145   7.138   6.630
  1108G11  C0FX76114   9.238   7.036   6.643
  1108G11  C0FW76115   9.375   7.061   6.617
  1108G11  C0GB76116   9.197   6.911   6.690
  1108G11  C0G376117   9.188   7.267   6.595
  1108G11  C07H76118   9.323   7.283   6.551
  1108G11  C0GC76119   9.059   6.881   6.711
  1108G11  C0G276120   9.293   6.816   6.712
  1108G11  C0G176121   9.427   6.841   6.682
  1108G11  C0FB76122   9.739   6.656   6.693
  1108G11  C0F276123   9.828   6.896   6.573
  1108G11  C0FY76124   9.465   6.959   6.629
  1108G11  C0F576125   9.782   7.121   6.514
  1108G11  C0FV76126   9.420   7.181   6.571
  1108G11  C07976127   9.721   7.348   6.452
  1108G11  C07A76128   9.668   7.570   6.380
  1108G11  C06Y76129   9.484   7.785   6.363
  1108G11  C07D76130   9.361   7.409   6.509
  1108G11  C01F76131   9.097   7.372   6.580
  1108G11  C00A76132   8.862   7.452   6.598
  1108G11  C00X76133   8.701   7.671   6.592
  1108G11  C00F76134   8.773   7.912   6.488
  1108G11  C02976135   9.092   7.726   6.487
  1108G11  C02576136   8.947   8.047   6.389
  1108G11  C06U76137   9.264   7.862   6.387
  1108G11  C02A76138   9.108   8.182   6.278
  1108G11  C05Y76139   9.366   8.213   6.181
  1108G11  C05Z76140   9.491   8.218   6.112
  1108G11  C06076141   9.522   8.323   6.029
  1108G11  C06276142   9.635   8.322   5.945
  1108G11  C06T76143   9.394   7.884   6.344
  1108G11  C06A76144   9.586   8.119   6.128
  1108G11  C06Z76145   9.611   7.795   6.307
  1108G11  C06Q76146   9.861   7.819   6.189
  1108G11  C06876147   9.706   8.117   6.052
  1108G11  C06776148   9.733   8.225   5.959
  1108G11  C06376149  10.100   8.219   5.755
  1108G11  C06C76150  10.223   8.203   5.682
  1108G11  C06D76151  10.261   8.292   5.591
  1108G11  C06E76152  10.374   8.292   5.506
  1108G11  C07Q76153  10.451   8.180   5.518
  1108G11  C07P76154  10.426   8.090   5.625
  1108G11  C07T76155  10.508   7.984   5.640
  1108G11  C07U76156  10.491   7.894   5.744
  1108G11  C07V76157  10.583   7.792   5.760
  1108G11  C08476158  10.692   7.774   5.671
  1108G11  C08C76159  10.709   7.864   5.572
  1108G11  C08B76160  10.821   7.852   5.492
  1108G11  C08A76161  10.838   7.945   5.396
  1108G11  C08976162  10.753   8.049   5.366
  1108G11  C08876163  10.787   8.139   5.265
  1108G11  C08776164  10.701   8.246   5.246
  1108G11  C08676165  10.588   8.263   5.330
  1108G11  C08X76166  10.903   8.128   5.188
  1108G11  C08T76167  10.976   8.008   5.203
  1108G11  C08D76168  10.647   8.062   5.452
  1108G11  C08U76169  10.942   7.926   5.311
  1108G11  C08V76170  11.027   7.819   5.322
  1108G11  C0CY76171  11.018   7.727   5.423
  1108G11  C0CX76172  11.105   7.620   5.430
  1108G11  C0CW76173  11.086   7.527   5.528
  1108G11  C0CV76174  10.983   7.551   5.615
  1108G11  C0D476175  10.894   7.657   5.609
  1108G11  C0CU76176  10.961   7.465   5.723
  1108G11  C0CT76177  11.050   7.357   5.738
  1108G11  C0CS76178  11.153   7.334   5.644
  1108G11  C0D676179  10.857   7.488   5.812
  1108G11  C0EC76180  10.764   7.594   5.796
  1108G11  C07X76181  10.661   7.610   5.889
  1108G11  C0DL76182  10.841   7.393   5.914
  1108G11  C0DK76183  10.732   7.411   5.999
  1108G11  C0DN76184  10.737   7.305   6.082
  1108G11  C0D876185  10.918   7.284   5.933
  1108G11  C08W76186  11.117   7.810   5.216
  1108G11  C0CQ76187  11.217   7.706   5.230
  1108G11  C09376188  10.910   7.748   5.506
  1108G11  C09276189  10.782   7.672   5.693
  1108G11  C08576190  10.622   7.974   5.555
  1108G11  C07S76191  10.564   8.170   5.435
  1108G11  C06F76192  10.405   8.383   5.406
  1108G11  C07O76193  10.310   8.101   5.706
  1108G11  C07N76194  10.279   8.003   5.800
  1108G11  C05D76195  10.190   8.405   5.582
  1108G11  C05C76196  10.232   8.505   5.492
  1108G11  C05N76197  10.130   8.597   5.498
  1108G11  C05M76198   9.787   8.538   5.675
  1108G11  C05I76199   9.656   8.426   5.849
  1108G11  C06176200   9.428   8.418   6.010
  1108G11  C02Q76201   9.194   8.491   6.035
  1108G11  C02O76202   8.983   8.635   5.894
  1108G11  C03Q76203   9.328   8.666   5.771
  1108G11  C03O76204   9.383   8.739   5.546
  1108G11  C03L76205   9.190   8.881   5.283
  1108G11  C02S76206   9.025   8.766   5.606
  1108G11  C02T76207   8.799   8.804   5.448
  1108G11  C03K76208   9.073   8.911   5.205
  1108G11  C03I76209   8.687   8.829   5.367
  1108G11  C03G76210   8.462   8.885   5.215
  1108G11  H00D76211   8.369   8.901   5.162
  1108G11  C03J76212   8.833   8.979   5.059
  1108G11  C03W76213   8.828   9.017   4.774
  1108G11  C04I76214   9.066   9.009   4.776
  1108G11  C04K76215   9.314   9.009   4.661
  1108G11  C04N76216   9.442   8.998   4.612
  1108G11  C04X76217   9.690   8.975   4.641
  1108G11  C05076218   9.933   8.920   4.667
  1108G11  C05W76219   9.879   8.885   4.942
  1108G11  C05S76220  10.325   8.749   4.868
  1108G11  C05R76221  10.100   8.813   5.130
  1108G11  C05O76222  10.111   8.679   5.387
  1108G11  C05B76223  10.333   8.495   5.400
  1108G11  C05A76224  10.397   8.660   5.080
  1108G11  C07R76225  10.501   8.368   5.309
  1108G11  C08N76226  10.721   8.337   5.139
  1108G11  C08M76227  10.834   8.321   5.055
  1108G11  C08L76228  10.852   8.410   4.947
  1108G11  C09176229  10.425   8.665   4.937
  1108G11  C09K76230  10.576   8.560   4.638
  1108G11  H00M76231  10.478   8.531   4.604
  1108G11  C08K76232  10.744   8.497   4.910
  1108G11  C09J76233  10.705   8.540   4.569
  1108G11  C09I76234  10.776   8.466   4.466
  1108G11  C09L76235  10.741   8.430   4.333
  1108G11  H00N76236  10.642   8.463   4.305
  1108G11  C09Q76237  10.826   8.362   4.256
  1108G11  H00O76238  10.800   8.351   4.152
  1108G11  O00B76239  10.954   8.327   4.292
  1108G11  C09G76240  10.997   8.356   4.422
  1108G11  C09F76241  11.123   8.305   4.463
  1108G11  O00A76242  11.197   8.272   4.351
  1108G11  C09P76243  11.323   8.227   4.383
  1108G11  H00P76244  11.405   8.264   4.323
  1108G11  C09O76245  11.345   8.147   4.496
  1108G11  C09D76246  11.285   8.195   4.615
  1108G11  C09C76247  11.317   8.150   4.752
  1108G11  C09N76248  11.384   8.038   4.810
  1108G11  C09T76249  11.426   7.932   4.736
  1108G11  C09S76250  11.448   7.934   4.594
  1108G11  C0CP76251  11.497   7.808   4.571
  1108G11  C0CN76252  11.518   7.729   4.687
  1108G11  C0CO76253  11.567   7.602   4.668
  1108G11  H01476254  11.574   7.536   4.753
  1108G11  C0CZ76255  11.615   7.570   4.538
  1108G11  H01576256  11.670   7.477   4.536
  1108G11  C0D076257  11.577   7.642   4.421
  1108G11  C0G576258  11.594   7.595   4.282
  1108G11  H01F76259  11.638   7.498   4.270
  1108G11  C0G476260  11.542   7.669   4.181
  1108G11  H01G76261  11.547   7.633   4.079
  1108G11  O00H76262  11.487   7.796   4.194
  1108G11  C0D276263  11.474   7.841   4.323
  1108G11  C09V76264  11.429   7.973   4.354
  1108G11  H00Q76265  11.401   8.030   4.267
  1108G11  C0D176266  11.515   7.768   4.436
  1108G11  C09R76267  11.414   8.021   4.485
  1108G11  C09H76268  10.908   8.429   4.508
  1108G11  C09E76269  11.177   8.289   4.596
  1108G11  C09B76270  11.274   8.221   4.859
  1108G11  C08Z76271  10.978   8.392   4.876
  1108G11  C08O76272  10.937   8.226   5.092
  1108G11  C09A76273  11.298   8.164   4.986
  1108G11  C08S76274  11.086   7.930   5.143
  1108G11  C09976275  11.367   8.045   4.954
  1108G11  C09U76276  11.473   7.812   4.798
  1108G11  C0BO76277  11.595   7.450   5.067
  1108G11  C0CL76278  11.321   7.698   5.135
  1108G11  C0D376279  11.207   7.613   5.334
  1108G11  C0D576280  11.172   7.424   5.538
  1108G11  C0BR76281  11.459   7.370   5.252
  1108G11  C0BQ76282  11.559   7.354   5.160
  1108G11  C0BL76283  11.781   7.307   4.987
  1108G11  C0AF76284  11.899   7.066   4.966
  1108G11  C0BH76285  11.673   7.014   5.251
  1108G11  C0BG76286  11.660   6.924   5.359
  1108G11  C0BD76287  11.815   6.769   5.251
  1108G11  C0AG76288  11.946   6.935   4.952
  1108G11  C0AI76289  12.129   6.795   4.866
  1108G11  C0AV76290  12.301   6.588   4.916
  1108G11  C0BB76291  12.005   6.492   5.117
  1108G11  O00C76292  12.346   6.401   5.070
  1108G11  C0BC76293  12.019   6.402   5.218
  1108G11  C0B976294  11.875   6.641   5.246
  1108G11  O00E76295  11.808   6.517   5.581
  1108G11  C0CA76296  11.744   6.554   5.697
  1108G11  O00F76297  11.758   6.488   5.798
  1108G11  C0BF76298  11.735   6.802   5.362
  1108G11  C0C576299  11.666   6.670   5.695
  1108G11  C0C476300  11.586   6.705   5.807
  1108G11  H01176301  11.577   6.637   5.891
  1108G11  C0C876302  11.576   6.955   5.469
  1108G11  C0C276303  11.504   6.823   5.800
  1108G11  C0C376304  11.419   6.869   5.906
  1108G11  C0DY76305  11.393   6.799   6.024
  1108G11  H01676306  11.429   6.707   6.069
  1108G11  C0DX76307  11.263   6.849   6.067
  1108G11  C0DW76308  11.166   6.742   6.090
  1108G11  C0BY76309  11.412   7.093   5.565
  1108G11  C0DB76310  11.323   6.971   5.892
  1108G11  C0CC76311  11.227   7.221   5.650
  1108G11  C0D776312  11.030   7.264   5.841
  1108G11  C0DZ76313  11.217   6.959   5.984
  1108G11  C0DM76314  10.855   7.229   6.050
  1108G11  C0DQ76315  10.955   6.888   6.114
  1108G11  C0DV76316  11.027   6.763   6.110
  1108G11  C0E076317  11.189   6.600   6.115
  1108G11  C0FO76318  11.029   6.427   6.365
  1108G11  C0E376319  11.296   6.536   6.190
  1108G11  H01776320  11.383   6.576   6.240
  1108G11  C0GV76321  11.135   6.388   6.444
  1108G11  C0ES76322  10.915   6.486   6.419
  1108G11  C0GQ76323  10.974   6.387   6.775
  1108G11  C0FJ76324  10.635   6.530   6.821
  1108G11  C0ED76325  10.684   6.604   6.556
  1108G11  C0ER76326  10.344   6.612   6.550
  1108G11  C0EP76327  10.317   6.827   6.478
  1108G11  C0E676328  10.677   6.768   6.357
  1108G11  C0DE76329  10.649   7.068   6.253
  1108G11  C0EA76330  10.286   7.070   6.403
  1108G11  C0DF76331  10.614   7.201   6.271
  1108G11  C08076332  10.298   7.378   6.253
  1108G11  C0DO76333  10.637   7.301   6.172
  1108G11  C0DJ76334  10.642   7.522   5.989
  1108G11  C07K76335  10.296   7.607   6.107
  1108G11  C07W76336  10.561   7.702   5.863
  1108G11  C08376337  10.372   7.898   5.821
  1108G11  C07J76338  10.200   7.713   6.079
  1108G11  C06O76339  10.014   7.922   6.032
  1108G11  C06M76340  10.157   8.010   5.866
  1118G11  C07176341  10.579   3.804  12.811
  1118G11  C07L76342  10.656   3.877  12.720
  1118G11  C07M76343  10.647   4.016  12.712
  1118G11  C07Y76344  10.707   4.083  12.607
  1118G11  C08176345  10.795   4.020  12.516
  1118G11  C08276346  10.833   4.092  12.402
  1118G11  C0DI76347  10.900   4.044  12.281
  1118G11  C0DH76348  10.957   3.919  12.241
  1118G11  C0DG76349  10.980   3.921  12.098
  1118G11  C0E976350  11.083   3.855  12.023
  1118G11  C0E876351  11.133   3.966  11.937
  1118G11  C0E776352  11.260   3.972  11.857
  1118G11  C0EB76353  11.338   3.858  11.839
  1118G11  C0EF76354  11.472   3.843  11.774
  1118G11  C0EE76355  11.585   3.928  11.780
  1118G11  C0FD76356  11.718   3.879  11.810
  1118G11  C0FE76357  11.753   3.751  11.860
  1118G11  H01B76358  11.677   3.674  11.860
  1118G11  C0FF76359  11.877   3.715  11.907
  1118G11  H01A76360  11.907   3.614  11.930
  1118G11  C0FG76361  11.978   3.807  11.905
  1118G11  H01876362  12.080   3.783  11.932
  1118G11  C0FH76363  11.950   3.940  11.858
  1118G11  C0FI76364  12.042   4.048  11.862
  1118G11  H01976365  12.143   4.031  11.897
  1118G11  O00K76366  12.018   4.175  11.818
  1118G11  C0FL76367  11.897   4.200  11.759
  1118G11  C0FK76368  11.795   4.103  11.764
  1118G11  C0FM76369  11.668   4.139  11.710
  1118G11  C0FN76370  11.652   4.261  11.634
  1118G11  C0FP76371  11.760   4.354  11.630
  1118G11  C0GO76372  11.758   4.474  11.563
  1118G11  C0GN76373  11.848   4.580  11.572
  1118G11  C0GR76374  11.965   4.545  11.648
  1118G11  C0GS76375  12.069   4.634  11.656
  1118G11  H01Q76376  12.158   4.606  11.711
  1118G11  C0GT76377  12.054   4.762  11.598
  1118G11  H01O76378  12.136   4.832  11.602
  1118G11  C0GU76379  11.938   4.795  11.531
  1118G11  H01P76380  11.933   4.893  11.485
  1118G11  O00L76381  11.979   4.415  11.712
  1118G11  C0GM76382  11.824   4.709  11.521
  1118G11  C0GL76383  11.698   4.744  11.470
  1118G11  H01R76384  11.664   4.843  11.444
  1118G11  C0GK76385  11.596   4.637  11.467
  1118G11  C0GP76386  11.451   4.625  11.430
  1118G11  C0E276387  11.421   4.482  11.433
  1118G11  C0E176388  11.287   4.467  11.472
  1118G11  C0DU76389  11.236   4.378  11.575
  1118G11  C0DT76390  11.284   4.264  11.631
  1118G11  C0E476391  11.415   4.227  11.630
  1118G11  C0E576392  11.428   4.123  11.724
  1118G11  C0DS76393  11.218   4.194  11.729
  1118G11  C0DR76394  11.102   4.256  11.783
  1118G11  C0DD76395  11.029   4.219  11.893
  1118G11  C0DC76396  10.955   4.337  11.937
  1118G11  C0DP76397  10.967   4.451  11.839
  1118G11  C0DA76398  10.913   4.587  11.845
  1118G11  C0D976399  10.826   4.651  11.954
  1118G11  C0CR76400  10.770   4.785  11.936
  1118G11  C0C076401  10.782   4.856  11.821
  1118G11  C0BZ76402  10.722   4.977  11.780
  1118G11  C0C176403  10.745   5.033  11.654
  1118G11  C0C776404  10.672   5.148  11.615
  1118G11  C0C676405  10.680   5.205  11.487
  1118G11  C0C976406  10.598   5.310  11.457
  1118G11  C0B876407  10.605   5.361  11.322
  1118G11  C0B776408  10.533   5.474  11.285
  1118G11  C0B676409  10.535   5.551  11.161
  1118G11  C0B576410  10.658   5.608  11.122
  1118G11  H00Z76411  10.758   5.574  11.142
  1118G11  C0B476412  10.630   5.736  11.056
  1118G11  H01076413  10.702   5.812  11.028
  1118G11  C0B376414  10.491   5.760  11.057
  1118G11  C0AP76415  10.422   5.876  11.108
  1118G11  C0AQ76416  10.342   5.827  11.213
  1118G11  C0AR76417  10.309   5.910  11.321
  1118G11  C0AS76418  10.275   5.841  11.433
  1118G11  C0AT76419  10.308   5.710  11.458
  1118G11  C0BA76420  10.358   5.633  11.357
  1118G11  C0AU76421  10.305   5.658  11.583
  1118G11  C0BE76422  10.366   5.538  11.614
  1118G11  C0BI76423  10.375   5.499  11.746
  1118G11  C0BJ76424  10.329   5.583  11.847
  1118G11  C0BK76425  10.334   5.547  11.976
  1118G11  C0BW76426  10.392   5.424  12.013
  1118G11  C0BV76427  10.446   5.342  11.911
  1118G11  C0BU76428  10.506   5.219  11.943
  1118G11  C0BX76429  10.575   5.151  11.845
  1118G11  C0BT76430  10.492   5.164  12.072
  1118G11  C0CD76431  10.546   5.043  12.098
  1118G11  C0CB76432  10.628   4.975  12.001
  1118G11  C0CE76433  10.531   4.990  12.226
  1118G11  C0CK76434  10.459   5.061  12.327
  1118G11  C0BS76435  10.409   5.187  12.296
  1118G11  C0CJ76436  10.333   5.257  12.394
  1118G11  C0BP76437  10.301   5.392  12.361
  1118G11  C0CI76438  10.221   5.467  12.450
  1118G11  C0CH76439  10.202   5.605  12.425
  1118G11  H01276440  10.167   5.663  12.509
  1118G11  C0BN76441  10.236   5.665  12.305
  1118G11  C0CG76442  10.186   5.788  12.275
  1118G11  C0CF76443  10.121   5.871  12.373
  1118G11  H01376444  10.117   5.840  12.476
  1118G11  O00G76445  10.063   5.994  12.344
  1118G11  C0AA76446  10.093   6.046  12.221
  1118G11  C0A976447  10.063   6.182  12.197
  1118G11  H00U76448  10.020   6.238  12.279
  1118G11  C0A876449  10.099   6.244  12.080
  1118G11  H00V76450  10.060   6.344  12.070
  1118G11  C0A776451  10.157   6.168  11.974
  1118G11  C0A676452  10.179   6.023  11.991
  1118G11  C0A576453  10.219   5.934  11.895
  1118G11  C0A476454  10.219   5.976  11.756
  1118G11  C0A376455  10.230   6.098  11.682
  1118G11  C0A276456  10.281   6.215  11.751
  1118G11  C0A176457  10.335   6.327  11.681
  1118G11  C0A076458  10.388   6.357  11.545
  1118G11  C09Z76459  10.439   6.488  11.532
  1118G11  C09Y76460  10.499   6.522  11.408
  1118G11  H00Y76461  10.539   6.622  11.404
  1118G11  C09X76462  10.499   6.443  11.289
  1118G11  C09W76463  10.555   6.491  11.172
  1118G11  H00R76464  10.578   6.596  11.166
  1118G11  C0AX76465  10.574   6.404  11.064
  1118G11  H00S76466  10.619   6.423  10.968
  1118G11  C0AW76467  10.541   6.269  11.083
  1118G11  H00T76468  10.556   6.204  10.998
  1118G11  C0AN76469  10.468   6.223  11.199
  1118G11  C0AO76470  10.423   6.089  11.205
  1118G11  C0AM76471  10.452   6.309  11.311
  1118G11  C0B276472  10.439   6.590  11.632
  1118G11  O00D76473  10.495   6.698  11.629
  1118G11  C0B176474  10.364   6.559  11.751
  1118G11  H00W76475  10.346   6.635  11.825
  1118G11  C0AL76476  10.389   6.268  11.430
  1118G11  C0AK76477  10.333   6.131  11.430
  1118G11  C0B076478  10.316   6.432  11.771
  1118G11  C0AZ76479  10.235   6.394  11.881
  1118G11  H00X76480  10.217   6.450  11.972
  1118G11  C0AJ76481  10.273   6.066  11.548
  1118G11  C0AH76482  10.228   5.873  11.660
  1118G11  C0AE76483  10.242   5.801  11.923
  1118G11  C0AD76484  10.246   5.757  12.047
  1118G11  C0AY76485  10.222   6.251  11.871
  1118G11  C0AB76486  10.162   5.974  12.121
  1118G11  C0AC76487  10.196   5.840  12.146
  1118G11  C0BM76488  10.288   5.582  12.207
  1118G11  C0CM76489  10.155   5.407  12.561
  1118G11  C09M76490  10.210   5.282  12.604
  1118G11  C09876491  10.191   5.247  12.742
  1118G11  C08R76492  10.195   5.122  12.821
  1118G11  C08Q76493  10.162   5.134  12.960
  1118G11  C08P76494  10.118   5.047  13.070
  1118G11  C08Y76495  10.036   5.110  13.162
  1118G11  C09776496   9.996   5.240  13.148
  1118G11  C09676497   9.866   5.257  13.188
  1118G11  C09076498   9.838   5.140  13.268
  1118G11  C09576499   9.720   5.111  13.335
  1118G11  C09476500   9.696   4.998  13.421
  1118G11  C08J76501   9.778   4.883  13.450
  1118G11  C08I76502   9.685   4.777  13.477
  1118G11  C08H76503   9.738   4.653  13.430
  1118G11  C08G76504   9.857   4.687  13.350
  1118G11  C08F76505   9.970   4.618  13.279
  1118G11  C08E76506   9.999   4.480  13.302
  1118G11  C05976507   9.936   4.390  13.395
  1118G11  C05876508   9.979   4.259  13.415
  1118G11  C05776509   9.925   4.162  13.500
  1118G11  C05676510   9.812   4.208  13.572
  1118G11  C05576511   9.776   4.338  13.579
  1118G11  C05476512   9.646   4.354  13.631
  1118G11  C05376513   9.589   4.217  13.645
  1118G11  C05276514   9.460   4.169  13.672
  1118G11  C05176515   9.349   4.259  13.679
  1118G11  C05U76516   9.354   4.403  13.660
  1118G11  C05T76517   9.456   4.493  13.616
  1118G11  C06K76518   9.409   4.615  13.676
  1118G11  H00J76519   9.468   4.705  13.686
  1118G11  C06L76520   9.279   4.608  13.733
  1118G11  H00I76521   9.211   4.676  13.782
  1118G11  C05V76522   9.250   4.470  13.726
  1118G11  C06J76523   9.134   4.409  13.767
  1118G11  H00K76524   9.053   4.467  13.809
  1118G11  C05X76525   9.118   4.272  13.754
  1118G11  C06I76526   8.994   4.204  13.774
  1118G11  H00L76527   8.909   4.259  13.812
  1118G11  C04Z76528   8.968   4.064  13.758
  1118G11  C06H76529   8.839   4.008  13.774
  1118G11  H00H76530   8.751   4.068  13.794
  1118G11  C04Y76531   8.824   3.864  13.759
  1118G11  C06G76532   8.693   3.799  13.759
  1118G11  O00976533   8.593   3.865  13.753
  1118G11  O00876534   8.687   3.663  13.770
  1118G11  C04P76535   8.796   3.582  13.746
  1118G11  C04J76536   8.792   3.433  13.736
  1118G11  C04Q76537   8.683   3.342  13.747
  1118G11  H00E76538   8.585   3.383  13.769
  1118G11  C04M76539   8.692   3.198  13.750
  1118G11  C04R76540   8.580   3.112  13.770
  1118G11  H00F76541   8.485   3.151  13.803
  1118G11  C04S76542   8.594   2.980  13.761
  1118G11  H00G76543   8.506   2.921  13.784
  1118G11  O00776544   8.715   2.915  13.742
  1118G11  C03V76545   8.826   2.999  13.716
  1118G11  C03U76546   8.950   2.943  13.682
  1118G11  O00676547   8.955   2.809  13.670
  1118G11  C03F76548   9.077   2.750  13.653
  1118G11  C03E76549   9.197   2.823  13.637
  1118G11  C03D76550   9.193   2.960  13.650
  1118G11  C03C76551   9.308   3.038  13.625
  1118G11  C03B76552   9.426   2.961  13.602
  1118G11  C03A76553   9.543   3.026  13.578
  1118G11  C03976554   9.548   3.166  13.592
  1118G11  C03876555   9.689   3.189  13.566
  1118G11  C03776556   9.749   3.063  13.554
  1118G11  C03676557   9.877   3.051  13.524
  1118G11  C02R76558   9.946   2.939  13.476
  1118G11  C03576559  10.074   2.993  13.435
  1118G11  C03R76560  10.085   3.129  13.452
  1118G11  C03S76561  10.157   3.214  13.366
  1118G11  C04976562  10.123   3.346  13.368
  1118G11  C04876563  10.014   3.382  13.449
  1118G11  C03P76564   9.911   3.291  13.503
  1118G11  C04776565   9.992   3.516  13.443
  1118G11  C04676566   9.900   3.595  13.516
  1118G11  C04576567   9.778   3.555  13.576
  1118G11  C03T76568   9.719   3.431  13.584
  1118G11  C04476569   9.592   3.454  13.631
  1118G11  C04376570   9.586   3.593  13.675
  1118G11  C04276571   9.460   3.640  13.662
  1118G11  C04176572   9.387   3.517  13.658
  1118G11  C04076573   9.247   3.513  13.656
  1118G11  C03Z76574   9.165   3.386  13.671
  1118G11  C04H76575   9.036   3.432  13.698
  1118G11  C04G76576   9.032   3.575  13.695
  1118G11  C03N76577   9.182   3.244  13.666
  1118G11  C03Y76578   9.061   3.164  13.678
  1118G11  C03X76579   8.931   3.221  13.703
  1118G11  C04F76580   9.158   3.624  13.686
  1118G11  C04E76581   9.175   3.767  13.701
  1118G11  C04O76582   9.061   3.849  13.724
  1118G11  C04D76583   9.299   3.830  13.682
  1118G11  C04V76584   9.304   3.974  13.678
  1118G11  C04W76585   9.196   4.058  13.700
  1118G11  C04C76586   9.427   3.785  13.657
  1118G11  C04L76587   9.513   3.906  13.652
  1118G11  C04U76588   9.652   3.899  13.673
  1118G11  C05Q76589   9.727   4.000  13.620
  1118G11  C05P76590   9.845   3.951  13.560
  1118G11  C04T76591   9.847   3.819  13.564
  1118G11  C04B76592   9.727   3.783  13.626
  1118G11  C03M76593   9.465   3.395  13.641
  1118G11  C04A76594   9.697   3.650  13.627
  1118G11  C05H76595   9.935   3.728  13.504
  1118G11  C05G76596  10.051   3.736  13.421
  1118G11  C05F76597  10.117   3.856  13.396
  1118G11  C05E76598  10.199   3.874  13.281
  1118G11  C05L76599  10.269   3.792  13.185
  1118G11  C05K76600  10.268   3.648  13.193
  1118G11  C05J76601  10.188   3.562  13.281
  1118G11  C06676602  10.356   3.582  13.102
  1118G11  C06576603  10.430   3.656  13.006
  1118G11  C06476604  10.427   3.796  13.006
  1118G11  C06N76605  10.511   3.593  12.912
  1118G11  C06976606  10.512   3.455  12.905
  1118G11  C06P76607  10.588   3.385  12.808
  1118G11  C06R76608  10.596   3.244  12.803
  1118G11  C06B76609  10.521   3.176  12.895
  1118G11  C06S76610  10.527   3.036  12.892
  1118G11  C02G76611  10.452   2.959  12.978
  1118G11  C02F76612  10.448   2.825  12.970
  1118G11  C02776613  10.513   2.761  12.863
  1118G11  C02676614  10.503   2.626  12.846
  1118G11  C00E76615  10.563   2.562  12.740
  1118G11  C00D76616  10.544   2.429  12.722
  1118G11  C00C76617  10.600   2.369  12.614
  1118G11  C00B76618  10.671   2.431  12.513
  1118G11  C01576619  10.687   2.565  12.531
  1118G11  C07F76620  10.752   2.643  12.437
  1118G11  C07E76621  10.772   2.779  12.455
  1118G11  C06W76622  10.722   2.842  12.574
  1118G11  C06V76623  10.649   2.771  12.660
  1118G11  C06X76624  10.726   2.977  12.588
  1118G11  C07B76625  10.794   3.054  12.494
  1118G11  C07C76626  10.854   2.992  12.383
  1118G11  C0FU76627  10.922   3.066  12.289
  1118G11  C0F776628  10.968   3.006  12.177
  1118G11  C0F676629  11.026   3.087  12.079
  1118G11  C0F876630  11.082   3.025  11.965
  1118G11  C0F976631  11.149   3.104  11.872
  1118G11  C0FA76632  11.193   3.042  11.753
  1118G11  C0FZ76633  11.173   2.907  11.739
  1118G11  C0G076634  11.227   2.845  11.621
  1118G11  C0GD76635  11.306   2.917  11.531
  1118G11  C0FC76636  11.340   3.052  11.557
  1118G11  C0GH76637  11.428   3.126  11.474
  1118G11  C0EY76638  11.459   3.256  11.505
  1118G11  C0EX76639  11.563   3.323  11.436
  1118G11  C0EW76640  11.609   3.448  11.481
  1118G11  C0FR76641  11.714   3.516  11.411
  1118G11  H01D76642  11.746   3.617  11.434
  1118G11  C0FS76643  11.778   3.457  11.307
  1118G11  H01C76644  11.861   3.507  11.258
  1118G11  C0GJ76645  11.719   3.339  11.253
  1118G11  H01N76646  11.761   3.295  11.164
  1118G11  C0EV76647  11.530   3.515  11.579
  1118G11  C0FT76648  11.563   3.648  11.617
  1118G11  H01E76649  11.650   3.698  11.576
  1118G11  C0EU76650  11.427   3.450  11.638
  1118G11  C0ET76651  11.350   3.512  11.735
  1118G11  C0EI76652  11.263   3.451  11.821
  1118G11  C0F176653  11.246   3.311  11.802
  1118G11  C0F076654  11.304   3.247  11.688
  1118G11  C0EH76655  11.194   3.518  11.923
  1118G11  C0EG76656  11.194   3.659  11.932
  1118G11  C0EJ76657  11.124   3.439  12.019
  1118G11  C0F376658  11.109   3.303  12.002
  1118G11  C0EK76659  11.069   3.501  12.131
  1118G11  C0EL76660  11.070   3.641  12.145
  1118G11  C0EM76661  11.017   3.690  12.271
  1118G11  C0EN76662  10.978   3.602  12.367
  1118G11  C07I76663  10.914   3.668  12.475
  1118G11  C07476664  10.848   3.596  12.572
  1118G11  C07376665  10.758   3.667  12.647
  1118G11  C07276666  10.672   3.595  12.730
  1118G11  C07576667  10.840   3.461  12.550
  1118G11  C07676668  10.899   3.392  12.441
  1118G11  C07876669  10.883   3.257  12.419
  1118G11  C07G76670  10.760   3.390  12.634
  1118G11  C07076671  10.757   3.250  12.622
  1118G11  C07Z76672  10.905   3.804  12.449
  1118G11  C07776673  10.969   3.462  12.350
  1118G11  C0EO76674  11.011   3.418  12.230
  1118G11  C0F476675  10.997   3.279  12.210
  1118G11  C0EQ76676  11.365   3.650  11.757
  1118G11  C0FQ76677  11.624   3.268  11.327
  1118G11  C0GI76678  11.580   3.137  11.287
  1118G11  H01L76679  11.620   3.090  11.198
  1118G11  C0EZ76680  11.394   3.319  11.609
  1118G11  C0GG76681  11.485   3.065  11.363
  1118G11  C0GF76682  11.436   2.939  11.328
  1118G11  H01M76683  11.476   2.890  11.240
  1118G11  C0GE76684  11.347   2.871  11.405
  1118G11  H01K76685  11.311   2.778  11.362
  1118G11  O00J76686  11.202   2.712  11.591
  1118G11  C0GA76687  11.128   2.643  11.675
  1118G11  C0G976688  11.117   2.505  11.656
  1118G11  H01H76689  11.153   2.461  11.564
  1118G11  C0G876690  11.035   2.430  11.742
  1118G11  C0G776691  11.006   2.292  11.723
  1118G11  H01I76692  11.062   2.237  11.649
  1118G11  O00I76693  10.918   2.219  11.797
  1118G11  C0G676694  10.888   2.269  11.921
  1118G11  H01J76695  10.819   2.202  11.970
  1118G11  C02D76696  10.918   2.402  11.956
  1118G11  C02C76697  10.886   2.455  12.083
  1118G11  C01776698  10.821   2.381  12.184
  1118G11  C01676699  10.780   2.443  12.305
  1118G11  O00176700  10.812   2.242  12.178
  1118G11  C01876701  10.735   2.164  12.257
  1118G11  C00976702  10.684   2.222  12.375
  1118G11  C00876703  10.600   2.162  12.478
  1118G11  C00776704  10.547   2.034  12.509
  1118G11  C00676705  10.551   1.929  12.413
  1118G11  C00576706  10.491   1.802  12.436
  1118G11  C00476707  10.402   1.759  12.546
  1118G11  C00376708  10.345   1.822  12.666
  1118G11  C00276709  10.254   1.752  12.751
  1118G11  C00P76710  10.195   1.817  12.862
  1118G11  C00O76711  10.088   1.753  12.924
  1118G11  C00N76712  10.006   1.825  13.011
  1118G11  C01076713   9.889   1.772  13.063
  1118G11  C01176714   9.797   1.845  13.138
  1118G11  C01Q76715   9.677   1.795  13.178
  1118G11  C01U76716   9.642   1.662  13.154
  1118G11  C01276717   9.745   1.581  13.094
  1118G11  H00076718   9.723   1.476  13.079
  1118G11  C01V76719   9.516   1.621  13.211
  1118G11  H00776720   9.492   1.517  13.201
  1118G11  O00576721   9.421   1.700  13.269
  1118G11  C01W76722   9.455   1.828  13.276
  1118G11  C03176723   9.352   1.920  13.316
  1118G11  C03276724   9.373   2.059  13.323
  1118G11  H00A76725   9.297   2.129  13.356
  1118G11  C03376726   9.506   2.100  13.292
  1118G11  H00B76727   9.524   2.206  13.290
  1118G11  C01O76728   9.614   2.012  13.262
  1118G11  C01N76729   9.742   2.065  13.248
  1118G11  C01M76730   9.790   2.198  13.302
  1118G11  C01L76731   9.750   2.327  13.373
  1118G11  C01K76732   9.867   2.405  13.367
  1118G11  C01Y76733   9.887   2.539  13.414
  1118G11  C02I76734   9.779   2.603  13.461
  1118G11  C02N76735   9.789   2.745  13.476
  1118G11  C02M76736   9.671   2.815  13.523
  1118G11  C02L76737   9.553   2.748  13.553
  1118G11  C02K76738   9.549   2.605  13.540
  1118G11  C02U76739   9.435   2.539  13.591
  1118G11  C02V76740   9.318   2.612  13.610
  1118G11  C03H76741   9.195   2.541  13.627
  1118G11  H00C76742   9.182   2.434  13.624
  1118G11  C02W76743   9.440   2.401  13.602
  1118G11  C02X76744   9.541   2.334  13.532
  1118G11  C02Y76745   9.537   2.199  13.581
  1118G11  H00876746   9.601   2.114  13.565
  1118G11  C02Z76747   9.404   2.190  13.653
  1118G11  O00476748   9.351   2.092  13.703
  1118G11  O00376749   9.359   2.317  13.670
  1118G11  C02J76750   9.657   2.531  13.482
  1118G11  C01Z76751  10.007   2.602  13.370
  1118G11  C02076752  10.101   2.532  13.287
  1118G11  C01I76753  10.087   2.402  13.265
  1118G11  C01H76754  10.158   2.335  13.175
  1118G11  C00K76755  10.122   2.206  13.131
  1118G11  C01S76756  10.008   2.146  13.175
  1118G11  C01476757   9.958   2.025  13.132
  1118G11  C00J76758  10.190   2.137  13.036
  1118G11  C00I76759  10.296   2.201  12.972
  1118G11  C00H76760  10.326   2.335  13.005
  1118G11  C00G76761  10.411   2.410  12.923
  1118G11  C00S76762  10.355   2.145  12.862
  1118G11  C00T76763  10.442   2.222  12.792
  1118G11  C00U76764  10.485   2.169  12.671
  1118G11  C00R76765  10.324   2.013  12.822
  1118G11  C00L76766  10.156   2.010  12.996
  1118G11  C02876767  10.261   2.403  13.111
  1118G11  C02376768  10.279   2.538  13.128
  1118G11  C02476769  10.366   2.607  13.046
  1118G11  C02176770  10.206   2.603  13.223
  1118G11  C02276771  10.219   2.735  13.239
  1118G11  C02H76772  10.307   2.808  13.162
  1118G11  C03076773  10.313   2.948  13.169
  1118G11  C03476774  10.238   3.010  13.265
  1118G11  C02P76775  10.129   2.795  13.324
  1118G11  C02B76776  10.023   2.731  13.387
  1118G11  C01J76777   9.969   2.337  13.307
  1118G11  C01X76778   9.648   2.388  13.454
  1118G11  C01T76779   9.925   2.218  13.266
  1118G11  H00976780   9.252   1.880  13.321
  1118G11  C01P76781   9.588   1.880  13.242
  1118G11  C01R76782   9.831   1.979  13.173
  1118G11  C00Z76783   9.861   1.635  13.034
  1118G11  O00076784   9.946   1.563  12.962
  1118G11  C00M76785  10.043   1.954  13.048
  1118G11  C00Y76786  10.050   1.621  12.897
  1118G11  C01376787  10.115   1.554  12.800
  1118G11  H00176788  10.093   1.449  12.791
  1118G11  C00Q76789  10.228   1.946  12.894
  1118G11  C00176790  10.222   1.613  12.728
  1118G11  C00076791  10.289   1.551  12.621
  1118G11  H00676792  10.272   1.445  12.608
  1118G11  C00W76793  10.373   1.953  12.700
  1118G11  C01G76794  10.380   1.618  12.536
  1118G11  H00576795  10.435   1.558  12.466
  1118G11  C01C76796  10.523   1.729  12.313
  1118G11  H00276797  10.477   1.636  12.283
  1118G11  C01B76798  10.602   1.805  12.225
  1118G11  C01D76799  10.651   1.772  12.097
  1118G11  H00376800  10.622   1.676  12.058
  1118G11  C01E76801  10.722   1.862  12.033
  1118G11  H00476802  10.766   1.840  11.937
  1118G11  O00276803  10.759   1.983  12.090
  1118G11  C01A76804  10.629   1.931  12.289
  1118G11  C00V76805  10.468   2.036  12.626
  1118G11  C01976806  10.706   2.026  12.217
  1118G11  C02E76807  10.908   2.595  12.104
  1118G11  C0FX76808  10.977   2.671  12.007
  1118G11  C0FW76809  11.003   2.808  12.034
  1118G11  C0GB76810  11.022   2.615  11.891
  1118G11  C0G376811  10.873   2.653  12.226
  1118G11  C07H76812  10.892   2.792  12.248
  1118G11  C0GC76813  10.990   2.485  11.861
  1118G11  C0G276814  11.084   2.697  11.801
  1118G11  C0G176815  11.107   2.833  11.827
  1118G11  C0FB76816  11.279   3.113  11.668
  1118G11  C0F276817  11.158   3.243  11.885
  1118G11  C0FY76818  11.059   2.886  11.941
  1118G11  C0F576819  11.039   3.222  12.093
  1118G11  C0FV76820  10.959   2.866  12.155
  1118G11  C07976821  10.936   3.200  12.307
  1118G11  C07A76822  10.814   3.187  12.513
  1118G11  C06Y76823  10.667   3.043  12.695
  1118G11  C07D76824  10.844   2.853  12.366
  1118G11  C01F76825  10.804   2.580  12.327
  1118G11  C00A76826  10.714   2.363  12.398
  1118G11  C00X76827  10.569   2.239  12.589
  1118G11  C00F76828  10.469   2.354  12.813
  1118G11  C02976829  10.630   2.633  12.644
  1118G11  C02576830  10.433   2.546  12.943
  1118G11  C06U76831  10.587   2.834  12.772
  1118G11  C02A76832  10.379   2.746  13.062
  1118G11  C05Y76833  10.386   3.025  13.079
  1118G11  C05Z76834  10.375   3.165  13.086
  1118G11  C06076835  10.297   3.227  13.178
  1118G11  C06276836  10.287   3.367  13.182
  1118G11  C06T76837  10.597   2.973  12.789
  1118G11  C06A76838  10.441   3.242  12.989
  1118G11  C06Z76839  10.672   3.177  12.707
  1118G11  C06Q76840  10.672   3.453  12.721
  1118G11  C06876841  10.435   3.381  12.991
  1118G11  C06776842  10.354   3.445  13.089
  1118G11  C06376843  10.343   3.865  13.088
  1118G11  C06C76844  10.343   4.002  13.084
  1118G11  C06D76845  10.262   4.083  13.167
  1118G11  C06E76846  10.232   4.219  13.158
  1118G11  C07Q76847  10.304   4.285  13.063
  1118G11  C07P76848  10.384   4.214  12.976
  1118G11  C07T76849  10.449   4.288  12.877
  1118G11  C07U76850  10.533   4.220  12.793
  1118G11  C07V76851  10.593   4.286  12.683
  1118G11  C08476852  10.575   4.421  12.668
  1118G11  C08C76853  10.493   4.487  12.763
  1118G11  C08B76854  10.466   4.619  12.735
  1118G11  C08A76855  10.380   4.675  12.828
  1118G11  C08976856  10.317   4.623  12.934
  1118G11  C08876857  10.220   4.692  13.015
  1118G11  C08776858  10.155   4.624  13.119
  1118G11  C08676859  10.181   4.491  13.135
  1118G11  C08X76860  10.190   4.821  12.982
  1118G11  C08T76861  10.240   4.878  12.859
  1118G11  C08D76862  10.344   4.487  12.953
  1118G11  C08U76863  10.341   4.805  12.794
  1118G11  C08V76864  10.388   4.874  12.679
  1118G11  C0CY76865  10.468   4.809  12.591
  1118G11  C0CX76866  10.490   4.878  12.474
  1118G11  C0CW76867  10.566   4.814  12.374
  1118G11  C0CV76868  10.608   4.683  12.401
  1118G11  C0D476869  10.580   4.624  12.529
  1118G11  C0CU76870  10.681   4.615  12.305
  1118G11  C0CT76871  10.710   4.674  12.181
  1118G11  C0CS76872  10.662   4.802  12.155
  1118G11  C0D676873  10.722   4.495  12.343
  1118G11  C0EC76874  10.691   4.425  12.461
  1118G11  C07X76875  10.725   4.292  12.485
  1118G11  C0DL76876  10.796   4.428  12.250
  1118G11  C0DK76877  10.842   4.300  12.279
  1118G11  C0DN76878  10.890   4.258  12.160
  1118G11  C0D876879  10.828   4.467  12.117
  1118G11  C08W76880  10.321   4.992  12.660
  1118G11  C0CQ76881  10.346   5.073  12.541
  1118G11  C09376882  10.502   4.681  12.619
  1118G11  C09276883  10.623   4.491  12.556
  1118G11  C08576884  10.431   4.421  12.868
  1118G11  C07S76885  10.278   4.424  13.053
  1118G11  C06F76886  10.139   4.288  13.240
  1118G11  C07O76887  10.406   4.075  12.983
  1118G11  C07N76888  10.486   4.009  12.898
  1118G11  C05D76889  10.207   4.014  13.266
  1118G11  C05C76890  10.127   4.082  13.351
  1118G11  C05N76891  10.058   3.987  13.422
  1118G11  C05M76892  10.087   3.608  13.379
  1118G11  C05I76893  10.198   3.424  13.281
  1118G11  C06176894  10.238   3.148  13.272
  1118G11  C02Q76895  10.152   2.932  13.338
  1118G11  C02O76896   9.917   2.804  13.446
  1118G11  C03Q76897   9.960   3.161  13.505
  1118G11  C03O76898   9.775   3.309  13.548
  1118G11  C03L76899   9.438   3.252  13.622
  1118G11  C02S76900   9.663   2.959  13.552
  1118G11  C02T76901   9.433   2.818  13.587
  1118G11  C03K76902   9.311   3.184  13.638
  1118G11  C03I76903   9.315   2.752  13.610
  1118G11  C03G76904   9.081   2.609  13.652
  1118G11  H00D76905   8.997   2.545  13.674
  1118G11  C03J76906   9.070   3.025  13.662
  1118G11  C03W76907   8.819   3.142  13.717
  1118G11  C04I76908   8.915   3.357  13.712
  1118G11  C04K76909   8.917   3.645  13.728
  1118G11  C04N76910   8.934   3.785  13.740
  1118G11  C04X76911   9.076   3.989  13.726
  1118G11  C05076912   9.221   4.198  13.707
  1118G11  C05W76913   9.434   4.027  13.669
  1118G11  C05S76914   9.597   4.469  13.572
  1118G11  C05R76915   9.703   4.133  13.621
  1118G11  C05O76916   9.947   4.028  13.497
  1118G11  C05B76917  10.079   4.213  13.334
  1118G11  C05A76918   9.817   4.428  13.481
  1118G11  C07R76919  10.102   4.421  13.228
  1118G11  C08N76920  10.057   4.695  13.192
  1118G11  C08M76921  10.032   4.833  13.174
  1118G11  C08L76922   9.948   4.904  13.258
  1118G11  C09176923   9.709   4.524  13.479
  1118G11  C09K76924   9.551   4.824  13.461
  1118G11  H00M76925   9.463   4.763  13.449
  1118G11  C08K76926   9.870   4.828  13.352
  1118G11  C09J76927   9.562   4.967  13.441
  1118G11  C09I76928   9.496   5.081  13.379
  1118G11  C09L76929   9.356   5.123  13.381
  1118G11  H00N76930   9.285   5.067  13.440
  1118G11  C09Q76931   9.328   5.235  13.313
  1118G11  H00O76932   9.229   5.280  13.317
  1118G11  O00B76933   9.419   5.316  13.246
  1118G11  C09G76934   9.553   5.279  13.241
  1118G11  C09F76935   9.633   5.365  13.152
  1118G11  O00A76936   9.559   5.465  13.090
  1118G11  C09P76937   9.635   5.571  13.046
  1118G11  H00P76938   9.598   5.666  13.081
  1118G11  C09O76939   9.751   5.547  12.964
  1118G11  C09D76940   9.830   5.437  13.017
  1118G11  C09C76941   9.963   5.396  12.975
  1118G11  C09N76942  10.036   5.428  12.852
  1118G11  C09T76943   9.978   5.490  12.744
  1118G11  C09S76944   9.864   5.575  12.747
  1118G11  C0CP76945   9.850   5.619  12.614
  1118G11  C0CN76946   9.936   5.556  12.524
  1118G11  C0CO76947   9.912   5.587  12.385
  1118G11  H01476948   9.964   5.536  12.305
  1118G11  C0CZ76949   9.829   5.695  12.357
  1118G11  H01576950   9.818   5.722  12.253
  1118G11  C0D076951   9.754   5.773  12.458
  1118G11  C0G576952   9.670   5.887  12.430
  1118G11  H01F76953   9.671   5.920  12.327
  1118G11  C0G476954   9.611   5.958  12.531
  1118G11  H01G76955   9.555   6.046  12.502
  1118G11  O00H76956   9.602   5.903  12.656
  1118G11  C0D276957   9.676   5.789  12.684
  1118G11  C09V76958   9.681   5.731  12.812
  1118G11  H00Q76959   9.615   5.775  12.885
  1118G11  C0D176960   9.759   5.726  12.589
  1118G11  C09R76961   9.768   5.614  12.844
  1118G11  C09H76962   9.592   5.167  13.313
  1118G11  C09E76963   9.774   5.358  13.126
  1118G11  C09B76964  10.039   5.310  13.045
  1118G11  C08Z76965   9.940   5.044  13.238
  1118G11  C08O76966  10.107   4.901  13.072
  1118G11  C09A76967  10.154   5.272  12.971
  1118G11  C08S76968  10.235   4.999  12.770
  1118G11  C09976969  10.156   5.343  12.847
  1118G11  C09U76970  10.032   5.475  12.606
  1118G11  C0BO76971  10.325   5.450  12.240
  1118G11  C0CL76972  10.298   5.201  12.519
  1118G11  C0D376973  10.436   5.008  12.452
  1118G11  C0D576974  10.588   4.869  12.250
  1118G11  C0BR76975  10.429   5.239  12.169
  1118G11  C0BQ76976  10.383   5.369  12.143
  1118G11  C0BL76977  10.291   5.629  12.079
  1118G11  C0AF76978  10.274   5.708  11.821
  1118G11  C0BH76979  10.441   5.384  11.778
  1118G11  C0BG76980  10.512   5.315  11.679
  1118G11  C0BD76981  10.434   5.469  11.514
  1118G11  C0AG76982  10.258   5.736  11.688
  1118G11  C0AI76983  10.256   5.928  11.539
  1118G11  C0AV76984  10.349   6.048  11.319
  1118G11  C0BB76985  10.362   5.688  11.229
  1118G11  O00C76986  10.463   6.005  11.103
  1118G11  C0BC76987  10.435   5.644  11.119
  1118G11  C0B976988  10.438   5.520  11.382
  1118G11  O00E76989  10.686   5.308  11.224
  1118G11  C0CA76990  10.768   5.202  11.251
  1118G11  O00F76991  10.843   5.155  11.164
  1118G11  C0BF76992  10.513   5.362  11.551
  1118G11  C0C576993  10.767   5.155  11.386
  1118G11  C0C476994  10.855   5.045  11.427
  1118G11  H01176995  10.920   5.000  11.353
  1118G11  C0C876996  10.582   5.202  11.714
  1118G11  C0C276997  10.838   4.989  11.558
  1118G11  C0C376998  10.899   4.867  11.602
  1118G11  C0DY76999  10.982   4.783  11.527
  1118G11  H01677000  11.026   4.793  11.430
  1118G11  C0DX77001  11.009   4.664  11.608
  1118G11  C0DW77002  11.115   4.574  11.582
  1118G11  C0BY77003  10.643   5.033  11.877
  1118G11  C0DB77004  10.869   4.803  11.726
  1118G11  C0CC77005  10.687   4.855  12.031
  1118G11  C0D777006  10.786   4.602  12.079
  1118G11  C0DZ77007  10.931   4.675  11.736
  1118G11  C0DM77008  10.891   4.359  12.064
  1118G11  C0DQ77009  11.062   4.388  11.743
  1118G11  C0DV77010  11.125   4.444  11.631
  1118G11  C0E077011  11.225   4.594  11.487
  1118G11  C0FO77012  11.529   4.414  11.490
  1118G11  C0E377013  11.328   4.695  11.478
  1118G11  H01777014  11.320   4.793  11.522
  1118G11  C0GV77015  11.635   4.503  11.498
  1118G11  C0ES77016  11.531   4.298  11.575
  1118G11  C0GQ77017  11.876   4.323  11.701
  1118G11  C0FJ77018  11.822   3.974  11.811
  1118G11  C0ED77019  11.557   4.061  11.739
  1118G11  C0ER77020  11.478   3.715  11.710
  1118G11  C0EP77021  11.298   3.720  11.852
  1118G11  C0E677022  11.303   4.090  11.778
  1118G11  C0DE77023  11.044   4.086  11.953
  1118G11  C0EA77024  11.117   3.718  12.034
  1118G11  C0DF77025  10.950   4.044  12.048
  1118G11  C08077026  10.973   3.814  12.320
  1118G11  C0DO77027  10.919   4.125  12.165
  1118G11  C0DJ77028  10.804   4.226  12.396
  1118G11  C07K77029  10.818   3.881  12.536
  1118G11  C07W77030  10.678   4.222  12.595
  1118G11  C08377031  10.559   4.082  12.802
  1118G11  C07J77032  10.748   3.809  12.633
  1118G11  C06O77033  10.586   3.664  12.816
  1118G11  C06M77034  10.496   3.866  12.905
  1128G11  C07177035   0.886   9.339   9.348
  1128G11  C07L77036   0.766   9.292   9.293
  1128G11  C07M77037   0.650   9.371   9.283
  1128G11  C07Y77038   0.531   9.313   9.232
  1128G11  C08177039   0.521   9.182   9.177
  1128G11  C08277040   0.395   9.147   9.115
  1128G11  C0DI77041   0.353   9.018   9.063
  1128G11  C0DH77042   0.422   8.889   9.057
  1128G11  C0DG77043   0.336   8.795   8.980
  1128G11  C0E977044   0.312   8.651   9.001
  1128G11  C0E877045   0.173   8.643   8.942
  1128G11  C0E777046   0.108   8.528   8.879
  1128G11  C0EB77047   0.172   8.397   8.882
  1128G11  C0EF77048   0.135   8.276   8.807
  1128G11  C0EE77049   0.078   8.256   8.682
  1128G11  C0FD77050   0.149   8.167   8.600
  1128G11  C0FE77051   0.264   8.087   8.624
  1128G11  H01B77052   0.315   8.074   8.718
  1128G11  C0FF77053   0.328   8.011   8.532
  1128G11  H01A77054   0.414   7.952   8.561
  1128G11  C0FG77055   0.282   8.012   8.403
  1128G11  H01877056   0.333   7.961   8.323
  1128G11  C0FH77057   0.172   8.086   8.366
  1128G11  C0FI77058   0.116   8.090   8.234
  1128G11  H01977059   0.175   8.038   8.160
  1128G11  O00K77060   0.011   8.173   8.199
  1128G11  C0FL77061  -0.057   8.238   8.299
  1128G11  C0FK77062  -0.008   8.240   8.431
  1128G11  C0FM77063  -0.087   8.308   8.528
  1128G11  C0FN77064  -0.209   8.369   8.490
  1128G11  C0FP77065  -0.251   8.362   8.357
  1128G11  C0GO77066  -0.362   8.428   8.307
  1128G11  C0GN77067  -0.393   8.457   8.182
  1128G11  C0GR77068  -0.312   8.389   8.088
  1128G11  C0GS77069  -0.348   8.387   7.947
  1128G11  H01Q77070  -0.288   8.339   7.871
  1128G11  C0GT77071  -0.462   8.458   7.910
  1128G11  H01O77072  -0.498   8.461   7.808
  1128G11  C0GU77073  -0.534   8.536   8.008
  1128G11  H01P77074  -0.623   8.586   7.974
  1128G11  O00L77075  -0.209   8.310   8.123
  1128G11  C0GM77076  -0.505   8.538   8.143
  1128G11  C0GL77077  -0.577   8.605   8.243
  1128G11  H01R77078  -0.660   8.669   8.217
  1128G11  C0GK77079  -0.540   8.582   8.380
  1128G11  C0GP77080  -0.582   8.623   8.511
  1128G11  C0E277081  -0.519   8.539   8.611
  1128G11  C0E177082  -0.497   8.610   8.731
  1128G11  C0DU77083  -0.375   8.642   8.795
  1128G11  C0DT77084  -0.253   8.577   8.788
  1128G11  C0E477085  -0.222   8.472   8.702
  1128G11  C0E577086  -0.096   8.431   8.732
  1128G11  C0DS77087  -0.137   8.621   8.846
  1128G11  C0DR77088  -0.141   8.750   8.903
  1128G11  C0DD77089  -0.030   8.826   8.938
  1128G11  C0DC77090  -0.088   8.964   8.958
  1128G11  C0DP77091  -0.231   8.971   8.934
  1128G11  C0DA77092  -0.328   9.083   8.957
  1128G11  C0D977093  -0.313   9.217   9.016
  1128G11  C0CR77094  -0.426   9.309   9.034
  1128G11  C0C077095  -0.552   9.272   9.003
  1128G11  C0BZ77096  -0.670   9.341   9.032
  1128G11  C0C177097  -0.797   9.299   8.981
  1128G11  C0C777098  -0.910   9.368   9.015
  1128G11  C0C677099  -1.037   9.334   8.965
  1128G11  C0C977100  -1.149   9.407   9.006
  1128G11  C0B877101  -1.277   9.372   8.957
  1128G11  C0B777102  -1.400   9.413   9.023
  1128G11  C0B677103  -1.540   9.394   8.994
  1128G11  C0B577104  -1.590   9.426   8.869
  1128G11  H00Z77105  -1.526   9.435   8.782
  1128G11  C0B477106  -1.722   9.484   8.884
  1128G11  H01077107  -1.783   9.545   8.820
  1128G11  C0B377108  -1.767   9.469   9.020
  1128G11  C0AP77109  -1.823   9.571   9.116
  1128G11  C0AQ77110  -1.731   9.575   9.219
  1128G11  C0AR77111  -1.714   9.694   9.279
  1128G11  C0AS77112  -1.587   9.722   9.325
  1128G11  C0AT77113  -1.473   9.661   9.282
  1128G11  C0BA77114  -1.485   9.547   9.207
  1128G11  C0AU77115  -1.352   9.718   9.301
  1128G11  C0BE77116  -1.243   9.670   9.236
  1128G11  C0BI77117  -1.116   9.727   9.259
  1128G11  C0BJ77118  -1.106   9.847   9.330
  1128G11  C0BK77119  -0.982   9.909   9.352
  1128G11  C0BW77120  -0.869   9.842   9.311
  1128G11  C0BV77121  -0.879   9.718   9.243
  1128G11  C0BU77122  -0.764   9.651   9.206
  1128G11  C0BX77123  -0.776   9.533   9.136
  1128G11  C0BT77124  -0.642   9.709   9.239
  1128G11  C0CD77125  -0.530   9.633   9.211
  1128G11  C0CB77126  -0.535   9.508   9.135
  1128G11  C0CE77127  -0.401   9.683   9.246
  1128G11  C0CK77128  -0.389   9.816   9.303
  1128G11  C0BS77129  -0.508   9.889   9.329
  1128G11  C0CJ77130  -0.495  10.019   9.384
  1128G11  C0BP77131  -0.614  10.087   9.427
  1128G11  C0CI77132  -0.611  10.210   9.483
  1128G11  C0CH77133  -0.734  10.251   9.549
  1128G11  H01277134  -0.722  10.329   9.622
  1128G11  C0BN77135  -0.860  10.198   9.514
  1128G11  C0CG77136  -0.975  10.268   9.538
  1128G11  C0CF77137  -0.968  10.396   9.606
  1128G11  H01377138  -0.874  10.443   9.629
  1128G11  O00G77139  -1.079  10.472   9.630
  1128G11  C0AA77140  -1.197  10.404   9.617
  1128G11  C0A977141  -1.299  10.469   9.686
  1128G11  H00U77142  -1.291  10.560   9.743
  1128G11  C0A877143  -1.426  10.422   9.669
  1128G11  H00V77144  -1.499  10.475   9.727
  1128G11  C0A777145  -1.459  10.315   9.588
  1128G11  C0A677146  -1.344  10.230   9.537
  1128G11  C0A577147  -1.344  10.102   9.478
  1128G11  C0A477148  -1.465  10.031   9.456
  1128G11  C0A377149  -1.609  10.055   9.462
  1128G11  C0A277150  -1.674  10.174   9.505
  1128G11  C0A177151  -1.814  10.184   9.516
  1128G11  C0A077152  -1.932  10.099   9.481
  1128G11  C09Z77153  -2.056  10.152   9.517
  1128G11  C09Y77154  -2.175  10.089   9.488
  1128G11  H00Y77155  -2.267  10.137   9.516
  1128G11  C09X77156  -2.172   9.976   9.409
  1128G11  C09W77157  -2.294   9.906   9.388
  1128G11  H00R77158  -2.381   9.941   9.443
  1128G11  C0AX77159  -2.299   9.795   9.306
  1128G11  H00S77160  -2.395   9.747   9.294
  1128G11  C0AW77161  -2.183   9.749   9.252
  1128G11  H00T77162  -2.197   9.659   9.194
  1128G11  C0AN77163  -2.059   9.808   9.280
  1128G11  C0AO77164  -1.934   9.752   9.232
  1128G11  C0AM77165  -2.052   9.922   9.361
  1128G11  C0B277166  -2.078  10.272   9.595
  1128G11  O00D77167  -2.185  10.311   9.633
  1128G11  C0B177168  -1.964  10.353   9.632
  1128G11  H00W77169  -1.977  10.450   9.678
  1128G11  C0AL77170  -1.928   9.978   9.402
  1128G11  C0AK77171  -1.813   9.900   9.374
  1128G11  C0B077172  -1.838  10.305   9.594
  1128G11  C0AZ77173  -1.715  10.353   9.638
  1128G11  H00X77174  -1.703  10.436   9.707
  1128G11  C0AJ77175  -1.678   9.941   9.412
  1128G11  C0AH77176  -1.454   9.897   9.415
  1128G11  C0AE77177  -1.226  10.035   9.437
  1128G11  C0AD77178  -1.104  10.097   9.454
  1128G11  C0AY77179  -1.606  10.281   9.577
  1128G11  C0AB77180  -1.217  10.280   9.556
  1128G11  C0AC77181  -1.102  10.216   9.514
  1128G11  C0BM77182  -0.863  10.087   9.436
  1128G11  C0CM77183  -0.494  10.292   9.476
  1128G11  C09M77184  -0.368  10.225   9.432
  1128G11  C09877185  -0.251  10.314   9.429
  1128G11  C08R77186  -0.108  10.283   9.439
  1128G11  C08Q77187  -0.023  10.397   9.444
  1128G11  C08P77188   0.108  10.425   9.498
  1128G11  C08Y77189   0.134  10.560   9.535
  1128G11  C09777190   0.029  10.641   9.551
  1128G11  C09677191   0.043  10.718   9.660
  1128G11  C09077192   0.182  10.719   9.689
  1128G11  C09577193   0.242  10.776   9.810
  1128G11  C09477194   0.381  10.774   9.838
  1128G11  C08J77195   0.478  10.682   9.792
  1128G11  C08I77196   0.566  10.649   9.903
  1128G11  C08H77197   0.629  10.517   9.883
  1128G11  C08G77198   0.548  10.458   9.774
  1128G11  C08F77199   0.562  10.341   9.683
  1128G11  C08E77200   0.686  10.272   9.670
  1128G11  C05977201   0.816  10.314   9.710
  1128G11  C05877202   0.931  10.247   9.671
  1128G11  C05777203   1.060  10.281   9.709
  1128G11  C05677204   1.073  10.398   9.789
  1128G11  C05577205   0.971  10.479   9.816
  1128G11  C05477206   0.995  10.570   9.924
  1128G11  C05377207   1.127  10.531   9.978
  1128G11  C05277208   1.192  10.557  10.108
  1128G11  C05177209   1.119  10.642  10.205
  1128G11  C05U77210   0.980  10.691  10.199
  1128G11  C05T77211   0.864  10.666  10.110
  1128G11  C06K77212   0.779  10.782  10.136
  1128G11  H00J77213   0.698  10.823  10.079
  1128G11  C06L77214   0.815  10.837  10.255
  1128G11  H00I77215   0.755  10.912  10.306
  1128G11  C05V77216   0.947  10.794  10.291
  1128G11  C06J77217   1.019  10.828  10.401
  1128G11  H00K77218   0.976  10.891  10.477
  1128G11  C05X77219   1.141  10.763  10.427
  1128G11  C06I77220   1.218  10.790  10.537
  1128G11  H00L77221   1.174  10.857  10.609
  1128G11  C04Z77222   1.349  10.737  10.555
  1128G11  C06H77223   1.419  10.765  10.677
  1128G11  H00H77224   1.372  10.828  10.752
  1128G11  C04Y77225   1.541  10.693  10.706
  1128G11  C06G77226   1.613  10.732  10.827
  1128G11  O00977227   1.579  10.818  10.906
  1128G11  O00877228   1.729  10.657  10.846
  1128G11  C04P77229   1.781  10.564  10.759
  1128G11  C04J77230   1.897  10.484  10.787
  1128G11  C04Q77231   1.987  10.497  10.900
  1128G11  H00E77232   1.955  10.570  10.974
  1128G11  C04M77233   2.100  10.415  10.912
  1128G11  C04R77234   2.181  10.414  11.032
  1128G11  H00F77235   2.170  10.477  11.119
  1128G11  C04S77236   2.274  10.318  11.040
  1128G11  H00G77237   2.331  10.322  11.131
  1128G11  O00777238   2.308  10.227  10.944
  1128G11  C03V77239   2.230  10.225  10.830
  1128G11  C03U77240   2.255  10.127  10.736
  1128G11  O00677241   2.358  10.043  10.757
  1128G11  C03F77242   2.360   9.932  10.687
  1128G11  C03E77243   2.277   9.906  10.580
  1128G11  C03D77244   2.180  10.001  10.541
  1128G11  C03C77245   2.099   9.974  10.428
  1128G11  C03B77246   2.118   9.853  10.367
  1128G11  C03A77247   2.033   9.822  10.263
  1128G11  C03977248   1.937   9.913  10.210
  1128G11  C03877249   1.882   9.837  10.097
  1128G11  C03777250   1.954   9.717  10.092
  1128G11  C03677251   1.935   9.629   9.990
  1128G11  C02R77252   1.976   9.497   9.985
  1128G11  C03577253   1.897   9.447   9.873
  1128G11  C03R77254   1.814   9.543   9.825
  1128G11  C03S77255   1.684   9.502   9.776
  1128G11  C04977256   1.593   9.597   9.760
  1128G11  C04877257   1.626   9.724   9.827
  1128G11  C03P77258   1.740   9.756   9.906
  1128G11  C04777259   1.526   9.823   9.795
  1128G11  C04677260   1.521   9.953   9.837
  1128G11  C04577261   1.602  10.021   9.926
  1128G11  C03T77262   1.705   9.984  10.006
  1128G11  C04477263   1.737  10.092  10.097
  1128G11  C04377264   1.660  10.207  10.058
  1128G11  C04277265   1.635  10.283  10.167
  1128G11  C04177266   1.734  10.232  10.267
  1128G11  C04077267   1.770  10.303  10.382
  1128G11  C03Z77268   1.876  10.273  10.475
  1128G11  C04H77269   1.864  10.370  10.575
  1128G11  C04G77270   1.759  10.456  10.545
  1128G11  C03N77271   1.980  10.175  10.491
  1128G11  C03Y77272   2.064  10.201  10.605
  1128G11  C03X77273   2.045  10.304  10.697
  1128G11  C04F77274   1.690  10.416  10.436
  1128G11  C04E77275   1.566  10.477  10.404
  1128G11  C04O77276   1.520  10.578  10.495
  1128G11  C04D77277   1.491  10.462  10.282
  1128G11  C04V77278   1.371  10.530  10.266
  1128G11  C04W77279   1.318  10.628  10.356
  1128G11  C04C77280   1.520  10.376  10.178
  1128G11  C04L77281   1.414  10.406  10.080
  1128G11  C04U77282   1.397  10.346   9.951
  1128G11  C05Q77283   1.285  10.349   9.874
  1128G11  C05P77284   1.283  10.244   9.790
  1128G11  C04T77285   1.386  10.157   9.819
  1128G11  C04B77286   1.456  10.219   9.914
  1128G11  C03M77287   1.806  10.116  10.220
  1128G11  C04A77288   1.570  10.158   9.960
  1128G11  C05H77289   1.414  10.020   9.780
  1128G11  C05G77290   1.357   9.931   9.682
  1128G11  C05F77291   1.236   9.957   9.605
  1128G11  C05E77292   1.150   9.851   9.561
  1128G11  C05L77293   1.147   9.706   9.551
  1128G11  C05K77294   1.260   9.619   9.577
  1128G11  C05J77295   1.378   9.659   9.656
  1128G11  C06677296   1.243   9.485   9.534
  1128G11  C06577297   1.124   9.439   9.473
  1128G11  C06477298   1.017   9.522   9.455
  1128G11  C06N77299   1.110   9.301   9.435
  1128G11  C06977300   1.207   9.213   9.477
  1128G11  C06P77301   1.190   9.073   9.458
  1128G11  C06R77302   1.284   8.980   9.509
  1128G11  C06B77303   1.399   9.022   9.564
  1128G11  C06S77304   1.480   8.929   9.627
  1128G11  C02G77305   1.591   8.972   9.694
  1128G11  C02F77306   1.673   8.882   9.754
  1128G11  C02777307   1.641   8.744   9.749
  1128G11  C02677308   1.713   8.655   9.825
  1128G11  C00E77309   1.676   8.521   9.831
  1128G11  C00D77310   1.742   8.438   9.912
  1128G11  C00C77311   1.684   8.311   9.937
  1128G11  C00B77312   1.575   8.260   9.871
  1128G11  C01577313   1.520   8.343   9.780
  1128G11  C07F77314   1.410   8.302   9.711
  1128G11  C07E77315   1.337   8.389   9.625
  1128G11  C06W77316   1.378   8.521   9.616
  1128G11  C06V77317   1.490   8.568   9.684
  1128G11  C06X77318   1.305   8.613   9.542
  1128G11  C07B77319   1.187   8.566   9.481
  1128G11  C07C77320   1.146   8.435   9.492
  1128G11  C0FU77321   1.033   8.392   9.426
  1128G11  C0F777322   0.988   8.259   9.442
  1128G11  C0F677323   0.866   8.219   9.385
  1128G11  C0F877324   0.827   8.085   9.397
  1128G11  C0F977325   0.711   8.039   9.331
  1128G11  C0FA77326   0.672   7.905   9.341
  1128G11  C0FZ77327   0.751   7.818   9.414
  1128G11  C0G077328   0.706   7.687   9.436
  1128G11  C0GD77329   0.585   7.640   9.386
  1128G11  C0FC77330   0.506   7.730   9.315
  1128G11  C0GH77331   0.383   7.690   9.259
  1128G11  C0EY77332   0.309   7.777   9.185
  1128G11  C0EX77333   0.193   7.728   9.120
  1128G11  C0EW77334   0.122   7.821   9.031
  1128G11  C0FR77335   0.008   7.778   8.958
  1128G11  H01D77336  -0.062   7.835   8.898
  1128G11  C0FS77337  -0.042   7.651   8.968
  1128G11  H01C77338  -0.135   7.620   8.922
  1128G11  C0GJ77339   0.032   7.563   9.056
  1128G11  H01N77340  -0.005   7.462   9.070
  1128G11  C0EV77341   0.172   7.949   9.004
  1128G11  C0FT77342   0.116   8.031   8.901
  1128G11  H01E77343   0.036   8.005   8.833
  1128G11  C0EU77344   0.281   7.994   9.085
  1128G11  C0ET77345   0.323   8.123   9.077
  1128G11  C0EI77346   0.435   8.176   9.136
  1128G11  C0F177347   0.513   8.087   9.211
  1128G11  C0F077348   0.467   7.957   9.227
  1128G11  C0EH77349   0.463   8.318   9.124
  1128G11  C0EG77350   0.374   8.413   9.055
  1128G11  C0EJ77351   0.585   8.356   9.184
  1128G11  C0F377352   0.664   8.265   9.253
  1128G11  C0EK77353   0.620   8.495   9.177
  1128G11  C0EL77354   0.530   8.595   9.125
  1128G11  C0EM77355   0.584   8.729   9.142
  1128G11  C0EN77356   0.708   8.754   9.194
  1128G11  C07I77357   0.737   8.883   9.205
  1128G11  C07477358   0.847   8.936   9.275
  1128G11  C07377359   0.862   9.071   9.290
  1128G11  C07277360   0.977   9.113   9.350
  1128G11  C07577361   0.934   8.840   9.319
  1128G11  C07677362   0.905   8.703   9.308
  1128G11  C07877363   0.987   8.616   9.364
  1128G11  C07G77364   1.045   8.884   9.384
  1128G11  C07077365   1.136   8.795   9.427
  1128G11  C07Z77366   0.632   8.960   9.168
  1128G11  C07777367   0.791   8.655   9.244
  1128G11  C0EO77368   0.747   8.526   9.234
  1128G11  C0F477369   0.827   8.437   9.304
  1128G11  C0EQ77370   0.258   8.213   8.988
  1128G11  C0FQ77371   0.149   7.600   9.131
  1128G11  C0GI77372   0.224   7.519   9.209
  1128G11  H01L77373   0.183   7.420   9.220
  1128G11  C0EZ77374   0.352   7.911   9.168
  1128G11  C0GG77375   0.341   7.558   9.272
  1128G11  C0GF77376   0.428   7.465   9.331
  1128G11  H01M77377   0.416   7.358   9.336
  1128G11  C0GE77378   0.538   7.507   9.398
  1128G11  H01K77379   0.595   7.431   9.449
  1128G11  O00J77380   0.791   7.592   9.492
  1128G11  C0GA77381   0.908   7.637   9.546
  1128G11  C0G977382   0.989   7.542   9.613
  1128G11  H01H77383   0.960   7.438   9.618
  1128G11  C0G877384   1.115   7.579   9.665
  1128G11  C0G777385   1.209   7.490   9.728
  1128G11  H01I77386   1.174   7.389   9.749
  1128G11  O00I77387   1.335   7.531   9.766
  1128G11  C0G677388   1.353   7.665   9.782
  1128G11  H01J77389   1.448   7.688   9.828
  1128G11  C02D77390   1.272   7.758   9.720
  1128G11  C02C77391   1.302   7.895   9.729
  1128G11  C01777392   1.395   7.951   9.828
  1128G11  C01677393   1.430   8.083   9.821
  1128G11  O00177394   1.428   7.877   9.938
  1128G11  C01877395   1.521   7.925  10.033
  1128G11  C00977396   1.576   8.055  10.012
  1128G11  C00877397   1.691   8.119  10.082
  1128G11  C00777398   1.785   8.082  10.186
  1128G11  C00677399   1.763   7.974  10.273
  1128G11  C00577400   1.852   7.937  10.381
  1128G11  C00477401   1.969   8.005  10.438
  1128G11  C00377402   2.030   8.137  10.402
  1128G11  C00277403   2.145   8.177  10.474
  1128G11  C00P77404   2.194   8.309  10.459
  1128G11  C00O77405   2.302   8.359  10.538
  1128G11  C00N77406   2.340   8.493  10.533
  1128G11  C01077407   2.430   8.545  10.619
  1128G11  C01177408   2.467   8.679  10.616
  1128G11  C01Q77409   2.565   8.721  10.710
  1128G11  C01U77410   2.632   8.633  10.795
  1128G11  C01277411   2.591   8.502  10.794
  1128G11  H00077412   2.642   8.435  10.861
  1128G11  C01V77413   2.727   8.689  10.881
  1128G11  H00777414   2.795   8.616  10.923
  1128G11  O00577415   2.761   8.821  10.893
  1128G11  C01W77416   2.695   8.904  10.805
  1128G11  C03177417   2.740   9.037  10.803
  1128G11  C03277418   2.691   9.128  10.711
  1128G11  H00A77419   2.730   9.229  10.708
  1128G11  C03377420   2.604   9.078  10.618
  1128G11  H00B77421   2.580   9.143  10.535
  1128G11  C01O77422   2.555   8.946  10.615
  1128G11  C01N77423   2.454   8.904  10.526
  1128G11  C01M77424   2.373   8.992  10.436
  1128G11  C01L77425   2.332   9.132  10.402
  1128G11  C01K77426   2.264   9.124  10.280
  1128G11  C01Y77427   2.197   9.229  10.203
  1128G11  C02I77428   2.205   9.357  10.249
  1128G11  C02N77429   2.141   9.461  10.178
  1128G11  C02M77430   2.141   9.592  10.234
  1128G11  C02L77431   2.209   9.618  10.352
  1128G11  C02K77432   2.276   9.515  10.417
  1128G11  C02U77433   2.347   9.546  10.534
  1128G11  C02V77434   2.363   9.678  10.571
  1128G11  C03H77435   2.462   9.710  10.666
  1128G11  H00C77436   2.536   9.634  10.683
  1128G11  C02W77437   2.379   9.445  10.622
  1128G11  C02X77438   2.371   9.317  10.580
  1128G11  C02Y77439   2.371   9.238  10.698
  1128G11  H00877440   2.371   9.131  10.713
  1128G11  C02Z77441   2.399   9.327  10.812
  1128G11  O00477442   2.413   9.306  10.930
  1128G11  O00377443   2.396   9.453  10.757
  1128G11  C02J77444   2.274   9.378  10.371
  1128G11  C01Z77445   2.108   9.185  10.103
  1128G11  C02077446   2.093   9.048  10.072
  1128G11  C01I77447   2.166   8.950  10.137
  1128G11  C01H77448   2.136   8.815  10.138
  1128G11  C00K77449   2.191   8.731  10.239
  1128G11  C01S77450   2.276   8.780  10.329
  1128G11  C01477451   2.332   8.708  10.432
  1128G11  C00J77452   2.149   8.601  10.244
  1128G11  C00I77453   2.060   8.557  10.150
  1128G11  C00H77454   2.000   8.641  10.054
  1128G11  C00G77455   1.899   8.601   9.972
  1128G11  C00S77456   2.012   8.433  10.167
  1128G11  C00T77457   1.913   8.392  10.080
  1128G11  C00U77458   1.851   8.272  10.102
  1128G11  C00R77459   2.051   8.345  10.269
  1128G11  C00L77460   2.202   8.519  10.343
  1128G11  C02877461   2.039   8.773  10.046
  1128G11  C02377462   1.972   8.870   9.968
  1128G11  C02477463   1.867   8.826   9.890
  1128G11  C02177464   1.995   9.005   9.986
  1128G11  C02277465   1.914   9.099   9.924
  1128G11  C02H77466   1.819   9.058   9.833
  1128G11  C03077467   1.736   9.146   9.768
  1128G11  C03477468   1.764   9.276   9.784
  1128G11  C02P77469   1.945   9.233   9.941
  1128G11  C02B77470   2.039   9.280  10.038
  1128G11  C01J77471   2.258   8.999  10.232
  1128G11  C01X77472   2.333   9.269  10.452
  1128G11  C01T77473   2.310   8.916  10.329
  1128G11  H00977474   2.816   9.066  10.875
  1128G11  C01P77475   2.602   8.856  10.709
  1128G11  C01R77476   2.418   8.763  10.521
  1128G11  C00Z77477   2.492   8.456  10.707
  1128G11  O00077478   2.468   8.323  10.707
  1128G11  C00M77479   2.296   8.571  10.430
  1128G11  C00Y77480   2.366   8.274  10.630
  1128G11  C01377481   2.315   8.147  10.647
  1128G11  H00177482   2.370   8.087  10.718
  1128G11  C00Q77483   2.151   8.391  10.359
  1128G11  C00177484   2.194   8.106  10.579
  1128G11  C00077485   2.144   7.978  10.601
  1128G11  H00677486   2.204   7.915  10.665
  1128G11  C00W77487   1.988   8.221  10.296
  1128G11  C01G77488   2.038   7.928  10.534
  1128G11  H00577489   2.028   7.823  10.553
  1128G11  C01C77490   1.800   7.809  10.435
  1128G11  H00277491   1.839   7.743  10.511
  1128G11  C01B77492   1.692   7.771  10.346
  1128G11  C01D77493   1.625   7.642  10.342
  1128G11  H00377494   1.646   7.561  10.410
  1128G11  C01E77495   1.535   7.626  10.244
  1128G11  H00477496   1.501   7.524  10.235
  1128G11  O00277497   1.497   7.727  10.153
  1128G11  C01A77498   1.674   7.866  10.249
  1128G11  C00V77499   1.879   8.182  10.205
  1128G11  C01977500   1.571   7.842  10.143
  1128G11  C02E77501   1.227   7.984   9.653
  1128G11  C0FX77502   1.113   7.943   9.583
  1128G11  C0FW77503   1.030   8.037   9.515
  1128G11  C0GB77504   1.070   7.807   9.589
  1128G11  C0G377505   1.261   8.121   9.648
  1128G11  C07H77506   1.185   8.211   9.578
  1128G11  C0GC77507   1.152   7.716   9.659
  1128G11  C0G277508   0.954   7.770   9.532
  1128G11  C0G177509   0.876   7.859   9.460
  1128G11  C0FB77510   0.549   7.863   9.292
  1128G11  C0F277511   0.632   8.131   9.261
  1128G11  C0FY77512   0.914   7.992   9.457
  1128G11  C0F577513   0.784   8.305   9.314
  1128G11  C0FV77514   1.069   8.167   9.511
  1128G11  C07977515   0.948   8.480   9.363
  1128G11  C07A77516   1.101   8.659   9.427
  1128G11  C06Y77517   1.341   8.745   9.545
  1128G11  C07D77518   1.224   8.346   9.563
  1128G11  C01F77519   1.368   8.168   9.725
  1128G11  C00A77520   1.531   8.133   9.902
  1128G11  C00X77521   1.741   8.230  10.028
  1128G11  C00F77522   1.852   8.474   9.988
  1128G11  C02977523   1.563   8.474   9.761
  1128G11  C02577524   1.826   8.692   9.896
  1128G11  C06U77525   1.526   8.703   9.688
  1128G11  C02A77526   1.788   8.921   9.823
  1128G11  C05Y77527   1.622   9.106   9.703
  1128G11  C05Z77528   1.533   9.197   9.650
  1128G11  C06077529   1.555   9.330   9.677
  1128G11  C06277530   1.458   9.432   9.642
  1128G11  C06T77531   1.448   8.794   9.620
  1128G11  C06A77532   1.422   9.160   9.571
  1128G11  C06Z77533   1.255   8.842   9.494
  1128G11  C06Q77534   1.072   9.023   9.395
  1128G11  C06877535   1.327   9.255   9.534
  1128G11  C06777536   1.347   9.391   9.570
  1128G11  C06377537   1.027   9.658   9.486
  1128G11  C06C77538   0.909   9.732   9.474
  1128G11  C06D77539   0.902   9.864   9.505
  1128G11  C06E77540   0.789   9.943   9.512
  1128G11  C07Q77541   0.671   9.888   9.478
  1128G11  C07P77542   0.668   9.760   9.432
  1128G11  C07T77543   0.551   9.708   9.384
  1128G11  C07U77544   0.546   9.574   9.339
  1128G11  C07V77545   0.432   9.530   9.287
  1128G11  C08477546   0.315   9.605   9.294
  1128G11  C08C77547   0.319   9.733   9.350
  1128G11  C08B77548   0.205   9.812   9.364
  1128G11  C08A77549   0.216   9.943   9.407
  1128G11  C08977550   0.330   9.995   9.450
  1128G11  C08877551   0.328  10.123   9.505
  1128G11  C08777552   0.445  10.174   9.555
  1128G11  C08677553   0.563  10.101   9.546
  1128G11  C08X77554   0.213  10.203   9.504
  1128G11  C08T77555   0.088  10.139   9.478
  1128G11  C08D77556   0.443   9.919   9.438
  1128G11  C08U77557   0.099  10.007   9.434
  1128G11  C08V77558  -0.024   9.957   9.402
  1128G11  C0CY77559  -0.036   9.833   9.345
  1128G11  C0CX77560  -0.156   9.790   9.306
  1128G11  C0CW77561  -0.167   9.665   9.246
  1128G11  C0CV77562  -0.052   9.583   9.233
  1128G11  C0D477563   0.070   9.635   9.270
  1128G11  C0CU77564  -0.060   9.463   9.165
  1128G11  C0CT77565  -0.180   9.412   9.117
  1128G11  C0CS77566  -0.297   9.485   9.143
  1128G11  C0D677567   0.060   9.402   9.138
  1128G11  C0EC77568   0.181   9.440   9.189
  1128G11  C07X77569   0.297   9.358   9.177
  1128G11  C0DL77570   0.050   9.277   9.080
  1128G11  C0DK77571   0.163   9.200   9.064
  1128G11  C0DN77572   0.129   9.086   9.004
  1128G11  C0D877573  -0.067   9.216   9.029
  1128G11  C08W77574  -0.125  10.048   9.423
  1128G11  C0CQ77575  -0.257  10.004   9.378
  1128G11  C09377576   0.080   9.763   9.329
  1128G11  C09277577   0.191   9.562   9.253
  1128G11  C08577578   0.439   9.789   9.391
  1128G11  C07S77579   0.557   9.969   9.487
  1128G11  C06F77580   0.795  10.074   9.569
  1128G11  C07O77581   0.786   9.681   9.431
  1128G11  C07N77582   0.783   9.548   9.382
  1128G11  C05D77583   1.026   9.924   9.537
  1128G11  C05C77584   1.031  10.055   9.572
  1128G11  C05N77585   1.157  10.080   9.624
  1128G11  C05M77586   1.417   9.798   9.702
  1128G11  C05I77587   1.476   9.565   9.683
  1128G11  C06177588   1.671   9.369   9.744
  1128G11  C02Q77589   1.869   9.315   9.863
  1128G11  C02O77590   2.056   9.414  10.071
  1128G11  C03Q77591   1.830   9.651   9.899
  1128G11  C03O77592   1.773   9.862  10.001
  1128G11  C03L77593   1.910  10.037  10.279
  1128G11  C02S77594   2.049   9.700  10.191
  1128G11  C02T77595   2.206   9.749  10.410
  1128G11  C03K77596   1.992  10.066  10.399
  1128G11  C03I77597   2.281   9.775  10.518
  1128G11  C03G77598   2.457   9.837  10.728
  1128G11  H00D77599   2.530   9.853  10.806
  1128G11  C03J77600   2.166  10.114  10.618
  1128G11  C03W77601   2.128  10.319  10.808
  1128G11  C04I77602   1.937  10.389  10.693
  1128G11  C04K77603   1.713  10.548  10.638
  1128G11  C04N77604   1.588  10.602  10.612
  1128G11  C04X77605   1.398  10.649  10.467
  1128G11  C05077606   1.191  10.679  10.326
  1128G11  C05W77607   1.320  10.503  10.139
  1128G11  C05S77608   0.867  10.580   9.984
  1128G11  C05R77609   1.176  10.434   9.878
  1128G11  C05O77610   1.175  10.207   9.696
  1128G11  C05B77611   0.916  10.129   9.602
  1128G11  C05A77612   0.845  10.427   9.802
  1128G11  C07R77613   0.681  10.153   9.594
  1128G11  C08N77614   0.446  10.303   9.613
  1128G11  C08M77615   0.330  10.386   9.598
  1128G11  C08L77616   0.341  10.519   9.654
  1128G11  C09177617   0.772  10.500   9.901
  1128G11  C09K77618   0.497  10.695  10.022
  1128G11  H00M77619   0.513  10.666  10.125
  1128G11  C08K77620   0.453  10.553   9.731
  1128G11  C09J77621   0.393  10.792   9.978
  1128G11  C09I77622   0.269  10.840  10.024
  1128G11  C09L77623   0.238  10.894  10.153
  1128G11  H00N77624   0.299  10.894  10.242
  1128G11  C09Q77625   0.109  10.933  10.165
  1128G11  H00O77626   0.084  10.972  10.262
  1128G11  O00B77627   0.014  10.923  10.071
  1128G11  C09G77628   0.037  10.862   9.946
  1128G11  C09F77629  -0.071  10.831   9.865
  1128G11  O00A77630  -0.178  10.874   9.929
  1128G11  C09P77631  -0.302  10.843   9.879
  1128G11  H00P77632  -0.389  10.868   9.939
  1128G11  C09O77633  -0.320  10.763   9.762
  1128G11  C09D77634  -0.202  10.715   9.696
  1128G11  C09C77635  -0.199  10.628   9.583
  1128G11  C09N77636  -0.296  10.537   9.535
  1128G11  C09T77637  -0.423  10.507   9.593
  1128G11  C09S77638  -0.487  10.628   9.636
  1128G11  C0CP77639  -0.615  10.625   9.566
  1128G11  C0CN77640  -0.636  10.520   9.475
  1128G11  C0CO77641  -0.752  10.512   9.394
  1128G11  H01477642  -0.775  10.440   9.317
  1128G11  C0CZ77643  -0.833  10.626   9.410
  1128G11  H01577644  -0.919  10.643   9.346
  1128G11  C0D077645  -0.821  10.722   9.517
  1128G11  C0G577646  -0.910  10.830   9.534
  1128G11  H01F77647  -0.999  10.836   9.473
  1128G11  C0G477648  -0.893  10.919   9.632
  1128G11  H01G77649  -0.973  10.987   9.656
  1128G11  O00H77650  -0.785  10.919   9.715
  1128G11  C0D277651  -0.679  10.836   9.674
  1128G11  C09V77652  -0.554  10.838   9.738
  1128G11  H00Q77653  -0.534  10.925   9.798
  1128G11  C0D177654  -0.701  10.730   9.582
  1128G11  C09R77655  -0.452  10.743   9.714
  1128G11  C09H77656   0.170  10.833   9.918
  1128G11  C09E77657  -0.073  10.760   9.742
  1128G11  C09B77658  -0.089  10.594   9.513
  1128G11  C08Z77659   0.229  10.599   9.628
  1128G11  C08O77660   0.213  10.337   9.533
  1128G11  C09A77661  -0.111  10.502   9.417
  1128G11  C08S77662  -0.060  10.163   9.477
  1128G11  C09977663  -0.240  10.458   9.427
  1128G11  C09U77664  -0.516  10.432   9.504
  1128G11  C0BO77665  -0.739  10.026   9.402
  1128G11  C0CL77666  -0.369  10.084   9.399
  1128G11  C0D377667  -0.268   9.869   9.329
  1128G11  C0D577668  -0.290   9.612   9.205
  1128G11  C0BR77669  -0.632   9.832   9.306
  1128G11  C0BQ77670  -0.747   9.902   9.340
  1128G11  C0BL77671  -0.986  10.032   9.413
  1128G11  C0AF77672  -1.223   9.906   9.378
  1128G11  C0BH77673  -1.004   9.667   9.215
  1128G11  C0BG77674  -1.015   9.554   9.137
  1128G11  C0BD77675  -1.257   9.561   9.153
  1128G11  C0AG77676  -1.340   9.836   9.369
  1128G11  C0AI77677  -1.578   9.846   9.387
  1128G11  C0AV77678  -1.813   9.788   9.297
  1128G11  C0BB77679  -1.617   9.497   9.186
  1128G11  O00C77680  -1.931   9.661   9.123
  1128G11  C0BC77681  -1.653   9.409   9.085
  1128G11  C0B977682  -1.382   9.501   9.131
  1128G11  O00E77683  -1.287   9.282   8.859
  1128G11  C0CA77684  -1.179   9.194   8.821
  1128G11  O00F77685  -1.197   9.099   8.746
  1128G11  C0BF77686  -1.138   9.511   9.098
  1128G11  C0C577687  -1.048   9.225   8.881
  1128G11  C0C477688  -0.940   9.144   8.852
  1128G11  H01177689  -0.941   9.052   8.795
  1128G11  C0C877690  -0.902   9.481   9.095
  1128G11  C0C277691  -0.811   9.187   8.901
  1128G11  C0C377692  -0.691   9.119   8.878
  1128G11  C0DY77693  -0.673   9.002   8.816
  1128G11  H01677694  -0.752   8.947   8.767
  1128G11  C0DX77695  -0.534   8.966   8.830
  1128G11  C0DW77696  -0.499   8.835   8.794
  1128G11  C0BY77697  -0.662   9.461   9.096
  1128G11  C0DB77698  -0.567   9.158   8.930
  1128G11  C0CC77699  -0.418   9.434   9.103
  1128G11  C0D777700  -0.190   9.277   9.058
  1128G11  C0DZ77701  -0.461   9.065   8.907
  1128G11  C0DM77702  -0.013   9.091   8.974
  1128G11  C0DQ77703  -0.254   8.832   8.892
  1128G11  C0DV77704  -0.372   8.771   8.838
  1128G11  C0E077705  -0.572   8.732   8.718
  1128G11  C0FO77706  -0.424   8.458   8.541
  1128G11  C0E377707  -0.620   8.743   8.576
  1128G11  H01777708  -0.645   8.841   8.538
  1128G11  C0GV77709  -0.439   8.489   8.410
  1128G11  C0ES77710  -0.292   8.434   8.583
  1128G11  C0GQ77711  -0.169   8.303   8.256
  1128G11  C0FJ77712   0.102   8.164   8.466
  1128G11  C0ED77713  -0.032   8.331   8.654
  1128G11  C0ER77714   0.164   8.165   8.897
  1128G11  C0EP77715   0.280   8.350   8.968
  1128G11  C0E677716  -0.030   8.524   8.819
  1128G11  C0DE77717   0.112   8.776   8.938
  1128G11  C0EA77718   0.403   8.554   9.063
  1128G11  C0DF77719   0.220   8.863   8.948
  1128G11  C08077720   0.536   8.864   9.123
  1128G11  C0DO77721   0.228   8.997   9.002
  1128G11  C0DJ77722   0.287   9.233   9.117
  1128G11  C07K77723   0.639   9.104   9.196
  1128G11  C07W77724   0.420   9.401   9.234
  1128G11  C08377725   0.660   9.499   9.329
  1128G11  C07J77726   0.755   9.155   9.256
  1128G11  C06O77727   0.993   9.252   9.372
  1128G11  C06M77728   0.900   9.472   9.395
  1138G11  C07177729   4.895   2.342   5.896
  1138G11  C07L77730   4.874   2.344   5.754
  1138G11  C07M77731   4.753   2.314   5.702
  1138G11  C07Y77732   4.736   2.299   5.565
  1138G11  C08177733   4.848   2.317   5.477
  1138G11  C08277734   4.828   2.279   5.340
  1138G11  C0DI77735   4.926   2.254   5.235
  1138G11  C0DH77736   5.066   2.288   5.223
  1138G11  C0DG77737   5.120   2.240   5.097
  1138G11  C0E977738   5.208   2.313   5.005
  1138G11  C0E877739   5.143   2.310   4.872
  1138G11  C0E777740   5.196   2.361   4.740
  1138G11  C0EB77741   5.339   2.405   4.733
  1138G11  C0EF77742   5.418   2.462   4.619
  1138G11  C0EE77743   5.374   2.538   4.508
  1138G11  C0FD77744   5.452   2.649   4.459
  1138G11  C0FE77745   5.573   2.694   4.520
  1138G11  H01B77746   5.615   2.649   4.609
  1138G11  C0FF77747   5.646   2.802   4.471
  1138G11  H01A77748   5.728   2.842   4.529
  1138G11  C0FG77749   5.593   2.878   4.368
  1138G11  H01877750   5.631   2.976   4.343
  1138G11  C0FH77751   5.471   2.841   4.307
  1138G11  C0FI77752   5.411   2.911   4.194
  1138G11  H01977753   5.445   3.011   4.172
  1138G11  O00K77754   5.301   2.865   4.125
  1138G11  C0FL77755   5.250   2.741   4.165
  1138G11  C0FK77756   5.295   2.670   4.282
  1138G11  C0FM77757   5.235   2.547   4.316
  1138G11  C0FN77758   5.137   2.498   4.226
  1138G11  C0FP77759   5.086   2.576   4.122
  1138G11  C0GO77760   4.980   2.547   4.049
  1138G11  C0GN77761   4.906   2.631   3.961
  1138G11  C0GR77762   4.963   2.760   3.946
  1138G11  C0GS77763   4.893   2.851   3.862
  1138G11  H01Q77764   4.939   2.949   3.854
  1138G11  C0GT77765   4.781   2.816   3.786
  1138G11  H01O77766   4.718   2.879   3.725
  1138G11  C0GU77767   4.728   2.683   3.810
  1138G11  H01P77768   4.638   2.654   3.758
  1138G11  O00L77769   5.086   2.794   3.995
  1138G11  C0GM77770   4.790   2.588   3.899
  1138G11  C0GL77771   4.747   2.456   3.926
  1138G11  H01R77772   4.656   2.420   3.879
  1138G11  C0GK77773   4.822   2.367   3.997
  1138G11  C0GP77774   4.801   2.235   4.052
  1138G11  C0E277775   4.921   2.198   4.132
  1138G11  C0E177776   4.875   2.129   4.247
  1138G11  C0DU77777   4.896   2.173   4.383
  1138G11  C0DT77778   5.001   2.243   4.438
  1138G11  C0E477779   5.088   2.329   4.375
  1138G11  C0E577780   5.163   2.391   4.475
  1138G11  C0DS77781   5.010   2.269   4.579
  1138G11  C0DR77782   4.905   2.212   4.659
  1138G11  C0DD77783   4.894   2.215   4.799
  1138G11  C0DC77784   4.762   2.154   4.827
  1138G11  C0DP77785   4.691   2.117   4.702
  1138G11  C0DA77786   4.554   2.059   4.682
  1138G11  C0D977787   4.444   2.041   4.783
  1138G11  C0CR77788   4.315   1.976   4.748
  1138G11  C0C077789   4.293   1.936   4.620
  1138G11  C0BZ77790   4.178   1.886   4.568
  1138G11  C0C177791   4.164   1.845   4.433
  1138G11  C0C777792   4.056   1.771   4.389
  1138G11  C0C677793   4.034   1.738   4.255
  1138G11  C0C977794   3.919   1.670   4.214
  1138G11  C0B877795   3.895   1.633   4.078
  1138G11  C0B777796   3.773   1.581   4.036
  1138G11  C0B677797   3.735   1.537   3.902
  1138G11  C0B577798   3.825   1.451   3.827
  1138G11  H00Z77799   3.931   1.435   3.842
  1138G11  C0B477800   3.742   1.361   3.747
  1138G11  H01077801   3.772   1.270   3.697
  1138G11  C0B377802   3.607   1.379   3.787
  1138G11  C0AP77803   3.488   1.304   3.827
  1138G11  C0AQ77804   3.435   1.378   3.933
  1138G11  C0AR77805   3.343   1.324   4.029
  1138G11  C0AS77806   3.347   1.393   4.148
  1138G11  C0AT77807   3.451   1.477   4.189
  1138G11  C0BA77808   3.543   1.524   4.095
  1138G11  C0AU77809   3.487   1.486   4.325
  1138G11  C0BE77810   3.602   1.555   4.358
  1138G11  C0BI77811   3.631   1.570   4.491
  1138G11  C0BJ77812   3.545   1.518   4.589
  1138G11  C0BK77813   3.559   1.549   4.724
  1138G11  C0BW77814   3.659   1.637   4.759
  1138G11  C0BV77815   3.754   1.678   4.665
  1138G11  C0BU77816   3.865   1.747   4.705
  1138G11  C0BX77817   3.971   1.767   4.618
  1138G11  C0BT77818   3.875   1.790   4.839
  1138G11  C0CD77819   3.989   1.860   4.883
  1138G11  C0CB77820   4.087   1.887   4.791
  1138G11  C0CE77821   3.993   1.917   5.011
  1138G11  C0CK77822   3.881   1.889   5.098
  1138G11  C0BS77823   3.772   1.809   5.059
  1138G11  C0CJ77824   3.679   1.769   5.157
  1138G11  C0BP77825   3.579   1.681   5.117
  1138G11  C0CI77826   3.494   1.623   5.212
  1138G11  C0CH77827   3.437   1.498   5.174
  1138G11  H01277828   3.397   1.441   5.257
  1138G11  C0BN77829   3.412   1.462   5.041
  1138G11  C0CG77830   3.319   1.365   5.004
  1138G11  C0CF77831   3.242   1.296   5.110
  1138G11  H01377832   3.261   1.293   5.216
  1138G11  O00G77833   3.144   1.201   5.072
  1138G11  C0AA77834   3.138   1.165   4.943
  1138G11  C0A977835   3.061   1.055   4.912
  1138G11  H00U77836   3.005   1.015   4.994
  1138G11  C0A877837   3.052   1.011   4.779
  1138G11  H00V77838   3.008   0.913   4.779
  1138G11  C0A777839   3.096   1.090   4.674
  1138G11  C0A677840   3.180   1.206   4.705
  1138G11  C0A577841   3.251   1.278   4.610
  1138G11  C0A477842   3.240   1.263   4.463
  1138G11  C0A377843   3.162   1.179   4.375
  1138G11  C0A277844   3.103   1.058   4.419
  1138G11  C0A177845   3.049   0.964   4.329
  1138G11  C0A077846   3.065   0.934   4.180
  1138G11  C09Z77847   3.007   0.811   4.144
  1138G11  C09Y77848   3.025   0.765   4.011
  1138G11  H00Y77849   2.977   0.672   3.986
  1138G11  C09X77850   3.118   0.835   3.924
  1138G11  C09W77851   3.144   0.771   3.802
  1138G11  H00R77852   3.097   0.677   3.778
  1138G11  C0AX77853   3.247   0.818   3.715
  1138G11  H00S77854   3.284   0.768   3.627
  1138G11  C0AW77855   3.316   0.932   3.759
  1138G11  H00T77856   3.399   0.967   3.698
  1138G11  C0AN77857   3.279   1.004   3.871
  1138G11  C0AO77858   3.342   1.125   3.904
  1138G11  C0AM77859   3.184   0.951   3.961
  1138G11  C0B277860   2.917   0.732   4.222
  1138G11  O00D77861   2.870   0.622   4.190
  1138G11  C0B177862   2.894   0.772   4.358
  1138G11  H00W77863   2.825   0.713   4.417
  1138G11  C0AL77864   3.150   1.009   4.088
  1138G11  C0AK77865   3.212   1.132   4.113
  1138G11  C0B077866   2.965   0.878   4.405
  1138G11  C0AZ77867   2.972   0.911   4.540
  1138G11  H00X77868   2.922   0.854   4.617
  1138G11  C0AJ77869   3.203   1.209   4.240
  1138G11  C0AH77870   3.304   1.352   4.378
  1138G11  C0AE77871   3.353   1.372   4.644
  1138G11  C0AD77872   3.371   1.407   4.778
  1138G11  C0AY77873   3.059   1.029   4.549
  1138G11  C0AB77874   3.206   1.238   4.838
  1138G11  C0AC77875   3.300   1.338   4.873
  1138G11  C0BM77876   3.476   1.536   4.948
  1138G11  C0CM77877   3.476   1.686   5.337
  1138G11  C09M77878   3.572   1.789   5.380
  1138G11  C09877879   3.533   1.863   5.503
  1138G11  C08R77880   3.621   1.937   5.594
  1138G11  C08Q77881   3.560   1.983   5.714
  1138G11  C08P77882   3.595   1.995   5.856
  1138G11  C08Y77883   3.489   1.975   5.946
  1138G11  C09777884   3.374   1.912   5.909
  1138G11  C09677885   3.325   1.834   6.014
  1138G11  C09077886   3.383   1.895   6.130
  1138G11  C09577887   3.369   1.851   6.263
  1138G11  C09477888   3.424   1.919   6.376
  1138G11  C08J77889   3.540   1.999   6.378
  1138G11  C08I77890   3.606   1.969   6.495
  1138G11  C08H77891   3.742   2.021   6.488
  1138G11  C08G77892   3.764   2.051   6.345
  1138G11  C08F77893   3.871   2.105   6.255
  1138G11  C08E77894   3.991   2.163   6.306
  1138G11  C05977895   4.015   2.193   6.445
  1138G11  C05877896   4.138   2.252   6.484
  1138G11  C05777897   4.180   2.281   6.617
  1138G11  C05677898   4.088   2.254   6.717
  1138G11  C05577899   3.951   2.235   6.688
  1138G11  C05477900   3.891   2.175   6.804
  1138G11  C05377901   3.995   2.171   6.908
  1138G11  C05277902   3.997   2.102   7.031
  1138G11  C05177903   3.884   2.015   7.063
  1138G11  C05U77904   3.762   1.975   6.983
  1138G11  C05T77905   3.725   1.998   6.843
  1138G11  C06K77906   3.586   1.980   6.840
  1138G11  H00J77907   3.528   2.005   6.752
  1138G11  C06L77908   3.530   1.932   6.959
  1138G11  H00I77909   3.427   1.903   6.973
  1138G11  C05V77910   3.644   1.929   7.048
  1138G11  C06J77911   3.649   1.881   7.173
  1138G11  H00K77912   3.558   1.837   7.210
  1138G11  C05X77913   3.766   1.881   7.246
  1138G11  C06I77914   3.783   1.807   7.370
  1138G11  H00L77915   3.691   1.771   7.414
  1138G11  C04Z77916   3.901   1.805   7.448
  1138G11  C06H77917   3.910   1.736   7.572
  1138G11  H00H77918   3.818   1.694   7.608
  1138G11  C04Y77919   4.037   1.731   7.641
  1138G11  C06G77920   4.046   1.654   7.761
  1138G11  O00977921   3.954   1.588   7.807
  1138G11  O00877922   4.166   1.653   7.832
  1138G11  C04P77923   4.277   1.703   7.773
  1138G11  C04J77924   4.415   1.687   7.826
  1138G11  C04Q77925   4.462   1.625   7.942
  1138G11  H00E77926   4.394   1.559   7.994
  1138G11  C04M77927   4.596   1.616   7.980
  1138G11  C04R77928   4.637   1.562   8.102
  1138G11  H00F77929   4.564   1.521   8.170
  1138G11  C04S77930   4.767   1.556   8.131
  1138G11  H00G77931   4.788   1.498   8.220
  1138G11  O00777932   4.868   1.592   8.047
  1138G11  C03V77933   4.829   1.645   7.927
  1138G11  C03U77934   4.923   1.682   7.838
  1138G11  O00677935   5.051   1.651   7.872
  1138G11  C03F77936   5.146   1.674   7.776
  1138G11  C03E77937   5.125   1.767   7.671
  1138G11  C03D77938   4.998   1.811   7.650
  1138G11  C03C77939   4.968   1.896   7.541
  1138G11  C03B77940   5.080   1.945   7.477
  1138G11  C03A77941   5.066   2.031   7.369
  1138G11  C03977942   4.937   2.060   7.320
  1138G11  C03877943   4.973   2.143   7.201
  1138G11  C03777944   5.110   2.160   7.202
  1138G11  C03677945   5.174   2.228   7.107
  1138G11  C02R77946   5.307   2.237   7.081
  1138G11  C03577947   5.308   2.299   6.958
  1138G11  C03R77948   5.187   2.341   6.915
  1138G11  C03S77949   5.156   2.348   6.776
  1138G11  C04977950   5.027   2.331   6.740
  1138G11  C04877951   4.938   2.295   6.847
  1138G11  C03P77952   4.967   2.269   6.987
  1138G11  C04777953   4.804   2.294   6.800
  1138G11  C04677954   4.691   2.286   6.882
  1138G11  C04577955   4.671   2.253   7.017
  1138G11  C03T77956   4.761   2.212   7.120
  1138G11  C04477957   4.680   2.158   7.225
  1138G11  C04377958   4.547   2.212   7.205
  1138G11  C04277959   4.461   2.120   7.273
  1138G11  C04177960   4.555   2.044   7.362
  1138G11  C04077961   4.507   1.944   7.449
  1138G11  C03Z77962   4.594   1.874   7.540
  1138G11  C04H77963   4.503   1.810   7.626
  1138G11  C04G77964   4.370   1.835   7.591
  1138G11  C03N77965   4.736   1.858   7.573
  1138G11  C03Y77966   4.760   1.784   7.690
  1138G11  C03X77967   4.662   1.725   7.770
  1138G11  C04F77968   4.369   1.912   7.481
  1138G11  C04E77969   4.243   1.947   7.421
  1138G11  C04O77970   4.132   1.880   7.474
  1138G11  C04D77971   4.223   2.030   7.310
  1138G11  C04V77972   4.103   2.025   7.238
  1138G11  C04W77973   3.990   1.956   7.287
  1138G11  C04C77974   4.320   2.099   7.233
  1138G11  C04L77975   4.245   2.156   7.119
  1138G11  C04U77976   4.300   2.245   7.019
  1138G11  C05Q77977   4.233   2.278   6.897
  1138G11  C05P77978   4.328   2.299   6.795
  1138G11  C04T77979   4.453   2.292   6.853
  1138G11  C04B77980   4.432   2.271   6.991
  1138G11  C03M77981   4.695   2.069   7.338
  1138G11  C04A77982   4.543   2.248   7.072
  1138G11  C05H77983   4.584   2.302   6.799
  1138G11  C05G77984   4.627   2.321   6.665
  1138G11  C05F77985   4.546   2.359   6.555
  1138G11  C05E77986   4.589   2.346   6.421
  1138G11  C05L77987   4.714   2.345   6.346
  1138G11  C05K77988   4.837   2.347   6.413
  1138G11  C05J77989   4.869   2.334   6.553
  1138G11  C06677990   4.945   2.342   6.324
  1138G11  C06577991   4.929   2.345   6.180
  1138G11  C06477992   4.802   2.330   6.122
  1138G11  C06N77993   5.036   2.356   6.093
  1138G11  C06977994   5.164   2.369   6.144
  1138G11  C06P77995   5.274   2.374   6.061
  1138G11  C06R77996   5.405   2.372   6.112
  1138G11  C06B77997   5.426   2.363   6.244
  1138G11  C06S77998   5.554   2.349   6.293
  1138G11  C02G77999   5.579   2.330   6.432
  1138G11  C02F78000   5.706   2.298   6.475
  1138G11  C02778001   5.811   2.287   6.391
  1138G11  C02678002   5.934   2.241   6.442
  1138G11  C00E78003   6.031   2.208   6.352
  1138G11  C00D78004   6.153   2.163   6.398
  1138G11  C00C78005   6.254   2.133   6.307
  1138G11  C00B78006   6.233   2.129   6.173
  1138G11  C01578007   6.112   2.176   6.126
  1138G11  C07F78008   6.091   2.189   5.991
  1138G11  C07E78009   5.970   2.237   5.942
  1138G11  C06W78010   5.868   2.275   6.030
  1138G11  C06V78011   5.891   2.263   6.167
  1138G11  C06X78012   5.742   2.310   5.985
  1138G11  C07B78013   5.726   2.318   5.849
  1138G11  C07C78014   5.830   2.282   5.760
  1138G11  C0FU78015   5.804   2.285   5.621
  1138G11  C0F778016   5.900   2.241   5.538
  1138G11  C0F678017   5.880   2.245   5.398
  1138G11  C0F878018   5.983   2.204   5.311
  1138G11  C0F978019   5.961   2.219   5.174
  1138G11  C0FA78020   6.062   2.178   5.085
  1138G11  C0FZ78021   6.174   2.122   5.137
  1138G11  C0G078022   6.281   2.095   5.050
  1138G11  C0GD78023   6.275   2.105   4.912
  1138G11  C0FC78024   6.152   2.156   4.860
  1138G11  C0GH78025   6.137   2.180   4.721
  1138G11  C0EY78026   6.017   2.236   4.674
  1138G11  C0EX78027   6.003   2.275   4.538
  1138G11  C0EW78028   5.881   2.328   4.497
  1138G11  C0FR78029   5.863   2.362   4.360
  1138G11  H01D78030   5.769   2.400   4.323
  1138G11  C0FS78031   5.963   2.334   4.268
  1138G11  H01C78032   5.942   2.347   4.163
  1138G11  C0GJ78033   6.085   2.283   4.315
  1138G11  H01N78034   6.163   2.272   4.241
  1138G11  C0EV78035   5.778   2.356   4.585
  1138G11  C0FT78036   5.655   2.415   4.542
  1138G11  H01E78037   5.631   2.456   4.445
  1138G11  C0EU78038   5.793   2.313   4.719
  1138G11  C0ET78039   5.690   2.324   4.808
  1138G11  C0EI78040   5.693   2.295   4.944
  1138G11  C0F178041   5.817   2.262   4.988
  1138G11  C0F078042   5.924   2.235   4.903
  1138G11  C0EH78043   5.579   2.322   5.023
  1138G11  C0EG78044   5.451   2.350   4.970
  1138G11  C0EJ78045   5.602   2.323   5.159
  1138G11  C0F378046   5.731   2.292   5.206
  1138G11  C0EK78047   5.499   2.358   5.244
  1138G11  C0EL78048   5.364   2.358   5.198
  1138G11  C0EM78049   5.271   2.375   5.310
  1138G11  C0EN78050   5.311   2.414   5.438
  1138G11  C07I78051   5.202   2.415   5.521
  1138G11  C07478052   5.220   2.403   5.653
  1138G11  C07378053   5.112   2.377   5.728
  1138G11  C07278054   5.131   2.370   5.870
  1138G11  C07578055   5.345   2.389   5.701
  1138G11  C07678056   5.459   2.389   5.615
  1138G11  C07878057   5.585   2.355   5.660
  1138G11  C07G78058   5.362   2.382   5.835
  1138G11  C07078059   5.494   2.368   5.885
  1138G11  C07Z78060   5.088   2.377   5.451
  1138G11  C07778061   5.441   2.397   5.479
  1138G11  C0EO78062   5.534   2.369   5.384
  1138G11  C0F478063   5.661   2.335   5.434
  1138G11  C0EQ78064   5.566   2.368   4.758
  1138G11  C0FQ78065   6.107   2.251   4.449
  1138G11  C0GI78066   6.226   2.194   4.498
  1138G11  H01L78067   6.308   2.170   4.432
  1138G11  C0EZ78068   5.911   2.253   4.765
  1138G11  C0GG78069   6.247   2.156   4.633
  1138G11  C0GF78070   6.361   2.090   4.680
  1138G11  H01M78071   6.450   2.069   4.622
  1138G11  C0GE78072   6.378   2.068   4.818
  1138G11  H01K78073   6.468   2.032   4.865
  1138G11  O00J78074   6.401   2.042   5.098
  1138G11  C0GA78075   6.410   2.015   5.231
  1138G11  C0G978076   6.516   1.932   5.279
  1138G11  H01H78077   6.593   1.896   5.213
  1138G11  C0G878078   6.526   1.895   5.417
  1138G11  C0G778079   6.626   1.811   5.470
  1138G11  H01I78080   6.688   1.753   5.403
  1138G11  O00I78081   6.630   1.770   5.594
  1138G11  C0G678082   6.542   1.835   5.684
  1138G11  H01J78083   6.538   1.794   5.784
  1138G11  C02D78084   6.449   1.936   5.644
  1138G11  C02C78085   6.365   2.006   5.732
  1138G11  C01778086   6.390   2.010   5.871
  1138G11  C01678087   6.299   2.078   5.955
  1138G11  O00178088   6.512   1.970   5.918
  1138G11  C01878089   6.538   1.950   6.050
  1138G11  C00978090   6.453   2.007   6.143
  1138G11  C00878091   6.465   2.008   6.286
  1138G11  C00778092   6.546   1.940   6.377
  1138G11  C00678093   6.633   1.835   6.341
  1138G11  C00578094   6.713   1.757   6.433
  1138G11  C00478095   6.699   1.736   6.575
  1138G11  C00378096   6.592   1.786   6.665
  1138G11  C00278097   6.586   1.717   6.789
  1138G11  C00P78098   6.479   1.748   6.878
  1138G11  C00O78099   6.464   1.674   6.998
  1138G11  C00N78100   6.365   1.704   7.088
  1138G11  C01078101   6.340   1.617   7.188
  1138G11  C01178102   6.221   1.631   7.270
  1138G11  C01Q78103   6.186   1.533   7.358
  1138G11  C01U78104   6.267   1.419   7.380
  1138G11  C01278105   6.385   1.411   7.308
  1138G11  H00078106   6.446   1.323   7.317
  1138G11  C01V78107   6.204   1.315   7.459
  1138G11  H00778108   6.264   1.227   7.475
  1138G11  O00578109   6.099   1.333   7.544
  1138G11  C01W78110   6.035   1.451   7.532
  1138G11  C03178111   5.942   1.479   7.631
  1138G11  C03278112   5.881   1.606   7.636
  1138G11  H00A78113   5.819   1.643   7.717
  1138G11  C03378114   5.913   1.695   7.534
  1138G11  H00B78115   5.862   1.791   7.538
  1138G11  C01O78116   6.004   1.672   7.435
  1138G11  C01N78117   6.030   1.763   7.339
  1138G11  C01M78118   5.944   1.881   7.316
  1138G11  C01L78119   5.805   1.917   7.334
  1138G11  C01K78120   5.788   2.037   7.260
  1138G11  C01Y78121   5.662   2.092   7.221
  1138G11  C02I78122   5.550   2.038   7.280
  1138G11  C02N78123   5.430   2.093   7.246
  1138G11  C02M78124   5.315   2.045   7.321
  1138G11  C02L78125   5.323   1.948   7.421
  1138G11  C02K78126   5.444   1.879   7.434
  1138G11  C02U78127   5.445   1.757   7.505
  1138G11  C02V78128   5.349   1.734   7.596
  1138G11  C03H78129   5.374   1.643   7.703
  1138G11  H00C78130   5.474   1.603   7.713
  1138G11  C02W78131   5.535   1.661   7.467
  1138G11  C02X78132   5.646   1.711   7.401
  1138G11  C02Y78133   5.711   1.588   7.368
  1138G11  H00878134   5.800   1.584   7.307
  1138G11  C02Z78135   5.625   1.469   7.418
  1138G11  O00478136   5.646   1.352   7.415
  1138G11  O00378137   5.523   1.529   7.483
  1138G11  C02J78138   5.561   1.924   7.363
  1138G11  C01Z78139   5.658   2.165   7.101
  1138G11  C02078140   5.778   2.186   7.021
  1138G11  C01I78141   5.898   2.137   7.064
  1138G11  C01H78142   6.002   2.106   6.976
  1138G11  C00K78143   6.105   2.017   7.011
  1138G11  C01S78144   6.102   1.949   7.131
  1138G11  C01478145   6.177   1.838   7.151
  1138G11  C00J78146   6.199   1.984   6.916
  1138G11  C00I78147   6.198   2.043   6.793
  1138G11  C00H78148   6.089   2.122   6.754
  1138G11  C00G78149   6.068   2.161   6.623
  1138G11  C00S78150   6.300   2.018   6.705
  1138G11  C00T78151   6.285   2.071   6.583
  1138G11  C00U78152   6.395   2.051   6.494
  1138G11  C00R78153   6.401   1.925   6.729
  1138G11  C00L78154   6.299   1.888   6.945
  1138G11  C02878155   5.989   2.151   6.847
  1138G11  C02378156   5.870   2.213   6.800
  1138G11  C02478157   5.853   2.238   6.665
  1138G11  C02178158   5.763   2.223   6.888
  1138G11  C02278159   5.635   2.250   6.840
  1138G11  C02H78160   5.619   2.272   6.702
  1138G11  C03078161   5.494   2.308   6.650
  1138G11  C03478162   5.388   2.322   6.736
  1138G11  C02P78163   5.527   2.248   6.922
  1138G11  C02B78164   5.539   2.204   7.056
  1138G11  C01J78165   5.905   2.076   7.193
  1138G11  C01X78166   5.681   1.847   7.365
  1138G11  C01T78167   5.994   1.972   7.220
  1138G11  H00978168   5.923   1.412   7.714
  1138G11  C01P78169   6.069   1.546   7.433
  1138G11  C01R78170   6.145   1.750   7.255
  1138G11  C00Z78171   6.421   1.507   7.213
  1138G11  O00078172   6.536   1.497   7.148
  1138G11  C00M78173   6.281   1.811   7.065
  1138G11  C00Y78174   6.549   1.564   7.031
  1138G11  C01378175   6.651   1.540   6.943
  1138G11  H00178176   6.722   1.465   6.971
  1138G11  C00Q78177   6.398   1.855   6.848
  1138G11  C00178178   6.673   1.615   6.826
  1138G11  C00078179   6.784   1.598   6.745
  1138G11  H00678180   6.858   1.525   6.771
  1138G11  C00W78181   6.501   1.889   6.637
  1138G11  C01G78182   6.800   1.656   6.624
  1138G11  H00578183   6.892   1.640   6.569
  1138G11  C01C78184   6.820   1.693   6.349
  1138G11  H00278185   6.893   1.615   6.368
  1138G11  C01B78186   6.800   1.742   6.217
  1138G11  C01D78187   6.877   1.703   6.102
  1138G11  H00378188   6.961   1.635   6.105
  1138G11  C01E78189   6.832   1.749   5.985
  1138G11  H00478190   6.885   1.718   5.896
  1138G11  O00278191   6.726   1.839   5.966
  1138G11  C01A78192   6.682   1.818   6.206
  1138G11  C00V78193   6.494   1.955   6.509
  1138G11  C01978194   6.649   1.869   6.078
  1138G11  C02E78195   6.259   2.081   5.682
  1138G11  C0FX78196   6.232   2.082   5.545
  1138G11  C0FW78197   6.115   2.141   5.498
  1138G11  C0GB78198   6.326   2.032   5.454
  1138G11  C0G378199   6.167   2.139   5.768
  1138G11  C07H78200   6.049   2.193   5.720
  1138G11  C0GC78201   6.434   1.958   5.506
  1138G11  C0G278202   6.310   2.046   5.319
  1138G11  C0G178203   6.192   2.101   5.272
  1138G11  C0FB78204   6.049   2.190   4.948
  1138G11  C0F278205   5.840   2.256   5.123
  1138G11  C0FY78206   6.100   2.149   5.360
  1138G11  C0F578207   5.759   2.294   5.344
  1138G11  C0FV78208   6.024   2.201   5.586
  1138G11  C07978209   5.687   2.327   5.573
  1138G11  C07A78210   5.604   2.352   5.799
  1138G11  C06Y78211   5.640   2.340   6.072
  1138G11  C07D78212   5.950   2.241   5.809
  1138G11  C01F78213   6.185   2.139   5.904
  1138G11  C00A78214   6.337   2.075   6.092
  1138G11  C00X78215   6.370   2.080   6.360
  1138G11  C00F78216   6.169   2.137   6.535
  1138G11  C02978217   6.013   2.218   6.212
  1138G11  C02578218   5.955   2.221   6.579
  1138G11  C06U78219   5.787   2.297   6.257
  1138G11  C02A78220   5.729   2.275   6.618
  1138G11  C05Y78221   5.469   2.327   6.514
  1138G11  C05Z78222   5.336   2.349   6.463
  1138G11  C06078223   5.233   2.349   6.554
  1138G11  C06278224   5.104   2.355   6.508
  1138G11  C06T78225   5.662   2.330   6.206
  1138G11  C06A78226   5.313   2.358   6.330
  1138G11  C06Z78227   5.512   2.368   6.023
  1138G11  C06Q78228   5.254   2.375   5.922
  1138G11  C06878229   5.183   2.360   6.281
  1138G11  C06778230   5.072   2.356   6.374
  1138G11  C06378231   4.691   2.329   6.206
  1138G11  C06C78232   4.567   2.302   6.144
  1138G11  C06D78233   4.450   2.303   6.216
  1138G11  C06E78234   4.326   2.256   6.176
  1138G11  C07Q78235   4.315   2.230   6.044
  1138G11  C07P78236   4.425   2.253   5.958
  1138G11  C07T78237   4.409   2.235   5.824
  1138G11  C07U78238   4.518   2.261   5.738
  1138G11  C07V78239   4.504   2.240   5.603
  1138G11  C08478240   4.377   2.204   5.552
  1138G11  C08C78241   4.274   2.178   5.636
  1138G11  C08B78242   4.156   2.128   5.587
  1138G11  C08A78243   4.055   2.109   5.674
  1138G11  C08978244   4.059   2.126   5.810
  1138G11  C08878245   3.952   2.096   5.889
  1138G11  C08778246   3.960   2.118   6.030
  1138G11  C08678247   4.084   2.167   6.081
  1138G11  C08X78248   3.839   2.042   5.838
  1138G11  C08T78249   3.836   1.996   5.698
  1138G11  C08D78250   4.180   2.173   5.860
  1138G11  C08U78251   3.948   2.035   5.625
  1138G11  C08V78252   3.938   2.000   5.492
  1138G11  C0CY78253   4.034   2.032   5.399
  1138G11  C0CX78254   4.012   1.995   5.269
  1138G11  C0CW78255   4.119   2.023   5.183
  1138G11  C0CV78256   4.235   2.081   5.231
  1138G11  C0D478257   4.241   2.120   5.363
  1138G11  C0CU78258   4.335   2.105   5.142
  1138G11  C0CT78259   4.332   2.058   5.005
  1138G11  C0CS78260   4.215   2.002   4.963
  1138G11  C0D678261   4.445   2.166   5.193
  1138G11  C0EC78262   4.460   2.198   5.325
  1138G11  C07X78263   4.584   2.242   5.381
  1138G11  C0DL78264   4.553   2.180   5.107
  1138G11  C0DK78265   4.671   2.220   5.163
  1138G11  C0DN78266   4.765   2.185   5.074
  1138G11  C0D878267   4.564   2.129   4.983
  1138G11  C08W78268   3.823   1.936   5.463
  1138G11  C0CQ78269   3.790   1.905   5.323
  1138G11  C09378270   4.142   2.094   5.452
  1138G11  C09278271   4.358   2.181   5.410
  1138G11  C08578272   4.283   2.196   5.773
  1138G11  C07S78273   4.191   2.196   5.995
  1138G11  C06F78274   4.217   2.238   6.257
  1138G11  C07O78275   4.551   2.278   6.008
  1138G11  C07N78276   4.657   2.297   5.929
  1138G11  C05D78277   4.469   2.333   6.350
  1138G11  C05C78278   4.359   2.325   6.429
  1138G11  C05N78279   4.403   2.344   6.558
  1138G11  C05M78280   4.769   2.312   6.660
  1138G11  C05I78281   5.003   2.341   6.601
  1138G11  C06178282   5.261   2.343   6.688
  1138G11  C02Q78283   5.412   2.294   6.869
  1138G11  C02O78284   5.426   2.177   7.134
  1138G11  C03Q78285   5.098   2.287   7.004
  1138G11  C03O78286   4.901   2.203   7.095
  1138G11  C03L78287   4.817   2.012   7.384
  1138G11  C02S78288   5.175   2.076   7.288
  1138G11  C02T78289   5.213   1.904   7.499
  1138G11  C03K78290   4.836   1.923   7.500
  1138G11  C03I78291   5.233   1.805   7.594
  1138G11  C03G78292   5.270   1.616   7.794
  1138G11  H00D78293   5.282   1.555   7.883
  1138G11  C03J78294   4.891   1.761   7.722
  1138G11  C03W78295   4.695   1.663   7.892
  1138G11  C04I78296   4.527   1.737   7.745
  1138G11  C04K78297   4.263   1.776   7.659
  1138G11  C04N78298   4.145   1.794   7.590
  1138G11  C04X78299   4.009   1.884   7.406
  1138G11  C05078300   3.876   1.954   7.197
  1138G11  C05W78301   4.112   2.103   7.122
  1138G11  C05S78302   3.804   2.081   6.748
  1138G11  C05R78303   4.106   2.244   6.856
  1138G11  C05O78304   4.309   2.319   6.659
  1138G11  C05B78305   4.235   2.272   6.387
  1138G11  C05A78306   3.928   2.169   6.563
  1138G11  C07R78307   4.094   2.188   6.218
  1138G11  C08N78308   3.852   2.084   6.115
  1138G11  C08M78309   3.730   2.038   6.060
  1138G11  C08L78310   3.625   2.015   6.140
  1138G11  C09178311   3.816   2.089   6.597
  1138G11  C09K78312   3.541   1.854   6.558
  1138G11  H00M78313   3.578   1.793   6.639
  1138G11  C08K78314   3.641   2.023   6.283
  1138G11  C09J78315   3.419   1.835   6.487
  1138G11  C09I78316   3.328   1.733   6.450
  1138G11  C09L78317   3.254   1.635   6.528
  1138G11  H00N78318   3.275   1.636   6.634
  1138G11  C09Q78319   3.168   1.555   6.459
  1138G11  H00O78320   3.115   1.481   6.517
  1138G11  O00B78321   3.148   1.548   6.322
  1138G11  C09G78322   3.220   1.637   6.240
  1138G11  C09F78323   3.203   1.622   6.095
  1138G11  O00A78324   3.113   1.525   6.058
  1138G11  C09P78325   3.140   1.465   5.937
  1138G11  H00P78326   3.136   1.358   5.928
  1138G11  C09O78327   3.180   1.545   5.826
  1138G11  C09D78328   3.236   1.675   5.854
  1138G11  C09C78329   3.298   1.768   5.755
  1138G11  C09N78330   3.331   1.753   5.615
  1138G11  C09T78331   3.341   1.630   5.552
  1138G11  C09S78332   3.224   1.546   5.578
  1138G11  C0CP78333   3.168   1.528   5.449
  1138G11  C0CN78334   3.237   1.592   5.344
  1138G11  C0CO78335   3.183   1.589   5.215
  1138G11  H01478336   3.218   1.641   5.127
  1138G11  C0CZ78337   3.064   1.509   5.202
  1138G11  H01578338   3.029   1.505   5.100
  1138G11  C0D078339   3.013   1.424   5.305
  1138G11  C0G578340   2.911   1.321   5.289
  1138G11  H01F78341   2.870   1.292   5.193
  1138G11  C0G478342   2.862   1.256   5.397
  1138G11  H01G78343   2.778   1.190   5.383
  1138G11  O00H78344   2.908   1.279   5.528
  1138G11  C0D278345   3.009   1.367   5.543
  1138G11  C09V78346   3.063   1.392   5.673
  1138G11  H00Q78347   3.027   1.332   5.755
  1138G11  C0D178348   3.056   1.443   5.437
  1138G11  C09R78349   3.162   1.493   5.695
  1138G11  C09H78350   3.301   1.736   6.308
  1138G11  C09E78351   3.247   1.712   5.994
  1138G11  C09B78352   3.352   1.893   5.781
  1138G11  C08Z78353   3.507   1.957   6.079
  1138G11  C08O78354   3.720   2.021   5.918
  1138G11  C09A78355   3.420   1.960   5.680
  1138G11  C08S78356   3.756   1.940   5.587
  1138G11  C09978357   3.406   1.873   5.573
  1138G11  C09U78358   3.360   1.635   5.407
  1138G11  C0BO78359   3.575   1.634   4.985
  1138G11  C0CL78360   3.685   1.822   5.290
  1138G11  C0D378361   3.891   1.933   5.228
  1138G11  C0D578362   4.107   1.985   5.053
  1138G11  C0BR78363   3.770   1.762   4.930
  1138G11  C0BQ78364   3.668   1.675   4.893
  1138G11  C0BL78365   3.467   1.501   4.814
  1138G11  C0AF78366   3.433   1.437   4.554
  1138G11  C0BH78367   3.746   1.634   4.534
  1138G11  C0BG78368   3.849   1.665   4.442
  1138G11  C0BD78369   3.698   1.590   4.265
  1138G11  C0AG78370   3.407   1.428   4.423
  1138G11  C0AI78371   3.281   1.325   4.250
  1138G11  C0AV78372   3.296   1.196   4.018
  1138G11  C0BB78373   3.522   1.488   3.959
  1138G11  O00C78374   3.438   1.178   3.812
  1138G11  C0BC78375   3.610   1.500   3.859
  1138G11  C0B978376   3.666   1.576   4.131
  1138G11  O00E78377   3.989   1.661   3.985
  1138G11  C0CA78378   4.109   1.719   4.012
  1138G11  O00F78379   4.190   1.735   3.920
  1138G11  C0BF78380   3.826   1.632   4.311
  1138G11  C0C578381   4.129   1.759   4.152
  1138G11  C0C478382   4.244   1.831   4.197
  1138G11  H01178383   4.324   1.848   4.126
  1138G11  C0C878384   3.961   1.726   4.487
  1138G11  C0C278385   4.259   1.871   4.337
  1138G11  C0C378386   4.373   1.936   4.389
  1138G11  C0DY78387   4.489   1.966   4.316
  1138G11  H01678388   4.507   1.954   4.210
  1138G11  C0DX78389   4.575   2.026   4.419
  1138G11  C0DW78390   4.676   2.113   4.372
  1138G11  C0BY78391   4.074   1.850   4.660
  1138G11  C0DB78392   4.391   1.969   4.526
  1138G11  C0CC78393   4.202   1.963   4.831
  1138G11  C0D778394   4.445   2.072   4.919
  1138G11  C0DZ78395   4.520   2.021   4.550
  1138G11  C0DM78396   4.702   2.140   4.951
  1138G11  C0DQ78397   4.785   2.156   4.599
  1138G11  C0DV78398   4.780   2.148   4.458
  1138G11  C0E078399   4.733   2.113   4.240
  1138G11  C0FO78400   5.003   2.315   4.135
  1138G11  C0E378401   4.683   2.189   4.126
  1138G11  H01778402   4.586   2.234   4.112
  1138G11  C0GV78403   4.943   2.409   4.056
  1138G11  C0ES78404   5.074   2.372   4.246
  1138G11  C0GQ78405   5.137   2.705   4.095
  1138G11  C0FJ78406   5.405   2.721   4.354
  1138G11  C0ED78407   5.262   2.485   4.441
  1138G11  C0ER78408   5.553   2.416   4.631
  1138G11  C0EP78409   5.443   2.373   4.829
  1138G11  C0E678410   5.130   2.342   4.607
  1138G11  C0DE78411   5.011   2.239   4.885
  1138G11  C0EA78412   5.341   2.345   5.057
  1138G11  C0DF78413   5.009   2.195   5.024
  1138G11  C08078414   5.133   2.355   5.322
  1138G11  C0DO78415   4.898   2.205   5.108
  1138G11  C0DJ78416   4.696   2.250   5.300
  1138G11  C07K78417   4.972   2.350   5.532
  1138G11  C07W78418   4.608   2.256   5.516
  1138G11  C08378419   4.643   2.283   5.790
  1138G11  C07J78420   4.988   2.364   5.671
  1138G11  C06O78421   5.021   2.359   5.953
  1138G11  C06M78422   4.785   2.324   5.982
  1148G11  C07178423   1.453   8.196  13.385
  1148G11  C07L78424   1.508   8.165  13.511
  1148G11  C07M78425   1.639   8.190  13.541
  1148G11  C07Y78426   1.696   8.149  13.664
  1148G11  C08178427   1.616   8.096  13.770
  1148G11  C08278428   1.681   8.074  13.896
  1148G11  C0DI78429   1.627   8.016  14.021
  1148G11  C0DH78430   1.507   7.941  14.050
  1148G11  C0DG78431   1.486   7.932  14.195
  1148G11  C0E978432   1.423   7.825  14.270
  1148G11  C0E878433   1.518   7.808  14.389
  1148G11  C0E778434   1.497   7.752  14.520
  1148G11  C0EB78435   1.372   7.680  14.543
  1148G11  C0EF78436   1.322   7.627  14.672
  1148G11  C0EE78437   1.331   7.698  14.794
  1148G11  C0FD78438   1.214   7.728  14.871
  1148G11  C0FE78439   1.082   7.727  14.817
  1148G11  H01B78440   1.065   7.717  14.711
  1148G11  C0FF78441   0.970   7.751  14.897
  1148G11  H01A78442   0.876   7.768  14.848
  1148G11  C0FG78443   0.988   7.771  15.032
  1148G11  H01878444   0.905   7.791  15.099
  1148G11  C0FH78445   1.118   7.784  15.089
  1148G11  C0FI78446   1.141   7.805  15.230
  1148G11  H01978447   1.055   7.823  15.293
  1148G11  O00K78448   1.267   7.822  15.284
  1148G11  C0FL78449   1.375   7.800  15.200
  1148G11  C0FK78450   1.363   7.764  15.062
  1148G11  C0FM78451   1.475   7.730  14.983
  1148G11  C0FN78452   1.601   7.728  15.051
  1148G11  C0FP78453   1.616   7.777  15.183
  1148G11  C0GO78454   1.734   7.801  15.238
  1148G11  C0GN78455   1.764   7.871  15.354
  1148G11  C0GR78456   1.652   7.899  15.437
  1148G11  C0GS78457   1.662   7.961  15.565
  1148G11  H01Q78458   1.574   7.993  15.618
  1148G11  C0GT78459   1.789   7.987  15.613
  1148G11  H01O78460   1.806   8.045  15.703
  1148G11  C0GU78461   1.898   7.954  15.532
  1148G11  H01P78462   1.995   7.986  15.567
  1148G11  O00L78463   1.528   7.870  15.384
  1148G11  C0GM78464   1.889   7.890  15.403
  1148G11  C0GL78465   2.003   7.849  15.318
  1148G11  H01R78466   2.108   7.867  15.329
  1148G11  C0GK78467   1.980   7.776  15.202
  1148G11  C0GP78468   2.054   7.725  15.091
  1148G11  C0E278469   1.971   7.645  15.006
  1148G11  C0E178470   2.015   7.654  14.870
  1148G11  C0DU78471   1.938   7.705  14.764
  1148G11  C0DT78472   1.800   7.701  14.741
  1148G11  C0E478473   1.700   7.689  14.842
  1148G11  C0E578474   1.581   7.706  14.772
  1148G11  C0DS78475   1.744   7.755  14.622
  1148G11  C0DR78476   1.827   7.815  14.532
  1148G11  C0DD78477   1.791   7.870  14.410
  1148G11  C0DC78478   1.921   7.940  14.360
  1148G11  C0DP78479   2.032   7.916  14.451
  1148G11  C0DA78480   2.177   7.953  14.438
  1148G11  C0D978481   2.254   8.015  14.323
  1148G11  C0CR78482   2.396   8.031  14.332
  1148G11  C0C078483   2.470   8.010  14.446
  1148G11  C0BZ78484   2.606   8.015  14.464
  1148G11  C0C178485   2.664   7.985  14.586
  1148G11  C0C778486   2.800   8.000  14.606
  1148G11  C0C678487   2.865   7.973  14.723
  1148G11  C0C978488   2.995   8.006  14.745
  1148G11  C0B878489   3.057   7.980  14.866
  1148G11  C0B778490   3.191   8.016  14.901
  1148G11  C0B678491   3.284   7.987  15.009
  1148G11  C0B578492   3.298   7.856  15.062
  1148G11  H00Z78493   3.231   7.772  15.057
  1148G11  C0B478494   3.443   7.844  15.088
  1148G11  H01078495   3.500   7.754  15.107
  1148G11  C0B378496   3.502   7.973  15.079
  1148G11  C0AP78497   3.629   8.031  15.031
  1148G11  C0AQ78498   3.585   8.138  14.953
  1148G11  C0AR78499   3.662   8.164  14.837
  1148G11  C0AS78500   3.592   8.203  14.728
  1148G11  C0AT78501   3.456   8.190  14.710
  1148G11  C0BA78502   3.380   8.150  14.816
  1148G11  C0AU78503   3.402   8.189  14.583
  1148G11  C0BE78504   3.276   8.147  14.563
  1148G11  C0BI78505   3.225   8.155  14.431
  1148G11  C0BJ78506   3.304   8.194  14.324
  1148G11  C0BK78507   3.252   8.207  14.199
  1148G11  C0BW78508   3.114   8.178  14.179
  1148G11  C0BV78509   3.034   8.141  14.286
  1148G11  C0BU78510   2.898   8.123  14.274
  1148G11  C0BX78511   2.818   8.079  14.381
  1148G11  C0BT78512   2.839   8.151  14.148
  1148G11  C0CD78513   2.701   8.128  14.132
  1148G11  C0CB78514   2.623   8.088  14.237
  1148G11  C0CE78515   2.641   8.165  14.013
  1148G11  C0CK78516   2.720   8.214  13.907
  1148G11  C0BS78517   2.855   8.220  13.915
  1148G11  C0CJ78518   2.935   8.265  13.804
  1148G11  C0BP78519   3.071   8.288  13.831
  1148G11  C0CI78520   3.153   8.341  13.727
  1148G11  C0CH78521   3.283   8.385  13.764
  1148G11  H01278522   3.340   8.430  13.684
  1148G11  C0BN78523   3.347   8.335  13.875
  1148G11  C0CG78524   3.488   8.346  13.893
  1148G11  C0CF78525   3.574   8.384  13.784
  1148G11  H01378526   3.541   8.425  13.690
  1148G11  O00G78527   3.707   8.382  13.798
  1148G11  C0AA78528   3.764   8.348  13.918
  1148G11  C0A978529   3.901   8.344  13.928
  1148G11  H00U78530   3.955   8.379  13.842
  1148G11  C0A878531   3.963   8.316  14.046
  1148G11  H00V78532   4.071   8.315  14.042
  1148G11  C0A778533   3.899   8.295  14.170
  1148G11  C0A678534   3.753   8.289  14.156
  1148G11  C0A578535   3.664   8.254  14.259
  1148G11  C0A478536   3.714   8.240  14.395
  1148G11  C0A378537   3.836   8.243  14.469
  1148G11  C0A278538   3.964   8.237  14.419
  1148G11  C0A178539   4.082   8.246  14.494
  1148G11  C0A078540   4.120   8.216  14.633
  1148G11  C09Z78541   4.256   8.225  14.668
  1148G11  C09Y78542   4.307   8.180  14.794
  1148G11  H00Y78543   4.413   8.185  14.813
  1148G11  C09X78544   4.213   8.112  14.888
  1148G11  C09W78545   4.265   8.056  15.010
  1148G11  H00R78546   4.367   8.071  15.043
  1148G11  C0AX78547   4.184   7.985  15.092
  1148G11  H00S78548   4.229   7.931  15.174
  1148G11  C0AW78549   4.050   7.970  15.057
  1148G11  H00T78550   3.988   7.912  15.124
  1148G11  C0AN78551   3.995   8.037  14.947
  1148G11  C0AO78552   3.851   8.058  14.942
  1148G11  C0AM78553   4.074   8.111  14.857
  1148G11  C0B278554   4.362   8.276  14.578
  1148G11  O00D78555   4.479   8.290  14.616
  1148G11  C0B178556   4.319   8.312  14.443
  1148G11  H00W78557   4.385   8.359  14.372
  1148G11  C0AL78558   4.025   8.173  14.735
  1148G11  C0AK78559   3.883   8.179  14.729
  1148G11  C0B078560   4.181   8.286  14.410
  1148G11  C0AZ78561   4.128   8.320  14.279
  1148G11  H00X78562   4.177   8.371  14.197
  1148G11  C0AJ78563   3.813   8.215  14.608
  1148G11  C0AH78564   3.618   8.232  14.495
  1148G11  C0AE78565   3.524   8.241  14.239
  1148G11  C0AD78566   3.463   8.269  14.114
  1148G11  C0AY78567   3.988   8.281  14.286
  1148G11  C0AB78568   3.687   8.318  14.031
  1148G11  C0AC78569   3.544   8.315  14.012
  1148G11  C0BM78570   3.270   8.274  13.975
  1148G11  C0CM78571   3.098   8.337  13.597
  1148G11  C09M78572   2.963   8.364  13.579
  1148G11  C09878573   2.924   8.452  13.473
  1148G11  C08R78574   2.798   8.488  13.417
  1148G11  C08Q78575   2.798   8.580  13.309
  1148G11  C08P78576   2.722   8.596  13.184
  1148G11  C08Y78577   2.798   8.660  13.077
  1148G11  C09778578   2.938   8.654  13.081
  1148G11  C09678579   2.988   8.616  12.960
  1148G11  C09078580   2.881   8.642  12.870
  1148G11  C09578581   2.884   8.623  12.730
  1148G11  C09478582   2.776   8.666  12.642
  1148G11  C08J78583   2.638   8.689  12.670
  1148G11  C08I78584   2.564   8.646  12.563
  1148G11  C08H78585   2.428   8.623  12.607
  1148G11  C08G78586   2.431   8.624  12.754
  1148G11  C08F78587   2.339   8.595  12.866
  1148G11  C08E78588   2.200   8.608  12.848
  1148G11  C05978589   2.130   8.648  12.728
  1148G11  C05878590   1.988   8.646  12.725
  1148G11  C05778591   1.905   8.662  12.611
  1148G11  C05678592   1.975   8.694  12.486
  1148G11  C05578593   2.106   8.734  12.491
  1148G11  C05478594   2.151   8.717  12.358
  1148G11  C05378595   2.049   8.670  12.274
  1148G11  C05278596   2.051   8.616  12.139
  1148G11  C05178597   2.179   8.598  12.073
  1148G11  C05U78598   2.308   8.619  12.128
  1148G11  C05T78599   2.359   8.647  12.258
  1148G11  C06K78600   2.495   8.686  12.237
  1148G11  H00J78601   2.563   8.719  12.314
  1148G11  C06L78602   2.536   8.672  12.105
  1148G11  H00I78603   2.638   8.688  12.072
  1148G11  C05V78604   2.421   8.621  12.044
  1148G11  C06J78605   2.422   8.583  11.910
  1148G11  H00K78606   2.517   8.578  11.860
  1148G11  C05X78607   2.303   8.535  11.858
  1148G11  C06I78608   2.293   8.493  11.727
  1148G11  H00L78609   2.380   8.510  11.666
  1148G11  C04Z78610   2.171   8.445  11.669
  1148G11  C06H78611   2.169   8.385  11.540
  1148G11  H00H78612   2.255   8.372  11.476
  1148G11  C04Y78613   2.049   8.323  11.495
  1148G11  C06G78614   2.049   8.241  11.369
  1148G11  O00978615   2.147   8.212  11.299
  1148G11  O00878616   1.935   8.192  11.323
  1148G11  C04P78617   1.820   8.212  11.395
  1148G11  C04J78618   1.699   8.150  11.351
  1148G11  C04Q78619   1.673   8.078  11.234
  1148G11  H00E78620   1.760   8.078  11.169
  1148G11  C04M78621   1.560   8.000  11.214
  1148G11  C04R78622   1.534   7.916  11.102
  1148G11  H00F78623   1.603   7.906  11.019
  1148G11  C04S78624   1.420   7.849  11.087
  1148G11  H00G78625   1.406   7.770  11.015
  1148G11  O00778626   1.321   7.848  11.180
  1148G11  C03V78627   1.347   7.916  11.295
  1148G11  C03U78628   1.253   7.912  11.399
  1148G11  O00678629   1.140   7.838  11.376
  1148G11  C03F78630   1.056   7.812  11.476
  1148G11  C03E78631   1.066   7.881  11.598
  1148G11  C03D78632   1.171   7.973  11.617
  1148G11  C03C78633   1.190   8.045  11.734
  1148G11  C03B78634   1.097   8.003  11.832
  1148G11  C03A78635   1.104   8.070  11.953
  1148G11  C03978636   1.208   8.161  11.991
  1148G11  C03878637   1.169   8.205  12.128
  1148G11  C03778638   1.052   8.131  12.154
  1148G11  C03678639   0.984   8.150  12.267
  1148G11  C02R78640   0.870   8.093  12.313
  1148G11  C03578641   0.848   8.148  12.439
  1148G11  C03R78642   0.952   8.228  12.473
  1148G11  C03S78643   0.998   8.254  12.602
  1148G11  C04978644   1.125   8.301  12.615
  1148G11  C04878645   1.200   8.324  12.500
  1148G11  C03P78646   1.161   8.280  12.367
  1148G11  C04778647   1.317   8.396  12.523
  1148G11  C04678648   1.400   8.450  12.425
  1148G11  C04578649   1.409   8.436  12.286
  1148G11  C03T78650   1.339   8.355  12.201
  1148G11  C04478651   1.401   8.359  12.073
  1148G11  C04378652   1.489   8.467  12.084
  1148G11  C04278653   1.585   8.450  11.982
  1148G11  C04178654   1.524   8.354  11.891
  1148G11  C04078655   1.571   8.316  11.765
  1148G11  C03Z78656   1.508   8.228  11.669
  1148G11  C04H78657   1.599   8.219  11.562
  1148G11  C04G78658   1.718   8.276  11.602
  1148G11  C03N78659   1.391   8.143  11.657
  1148G11  C03Y78660   1.375   8.071  11.537
  1148G11  C03X78661   1.473   8.077  11.429
  1148G11  C04F78662   1.708   8.338  11.721
  1148G11  C04E78663   1.816   8.411  11.769
  1148G11  C04O78664   1.935   8.400  11.695
  1148G11  C04D78665   1.822   8.478  11.888
  1148G11  C04V78666   1.946   8.514  11.945
  1148G11  C04W78667   2.066   8.510  11.873
  1148G11  C04C78668   1.718   8.511  11.983
  1148G11  C04L78669   1.788   8.582  12.098
  1148G11  C04U78670   1.729   8.617  12.230
  1148G11  C05Q78671   1.802   8.647  12.345
  1148G11  C05P78672   1.728   8.629  12.460
  1148G11  C04T78673   1.609   8.571  12.421
  1148G11  C04B78674   1.611   8.563  12.284
  1148G11  C03M78675   1.400   8.300  11.943
  1148G11  C04A78676   1.513   8.495  12.217
  1148G11  C05H78677   1.504   8.512  12.494
  1148G11  C05G78678   1.486   8.492  12.628
  1148G11  C05F78679   1.573   8.536  12.726
  1148G11  C05E78680   1.579   8.475  12.856
  1148G11  C05L78681   1.493   8.389  12.939
  1148G11  C05K78682   1.363   8.340  12.901
  1148G11  C05J78683   1.306   8.353  12.773
  1148G11  C06678684   1.287   8.270  12.996
  1148G11  C06578685   1.340   8.250  13.127
  1148G11  C06478686   1.473   8.289  13.162
  1148G11  C06N78687   1.265   8.188  13.230
  1148G11  C06978688   1.129   8.151  13.209
  1148G11  C06P78689   1.050   8.097  13.306
  1148G11  C06R78690   0.922   8.046  13.276
  1148G11  C06B78691   0.862   8.070  13.155
  1148G11  C06S78692   0.739   8.009  13.121
  1148G11  C02G78693   0.698   8.012  12.993
  1148G11  C02F78694   0.587   7.938  12.957
  1148G11  C02778695   0.506   7.875  13.058
  1148G11  C02678696   0.391   7.805  13.019
  1148G11  C00E78697   0.327   7.735  13.113
  1148G11  C00D78698   0.224   7.653  13.075
  1148G11  C00C78699   0.156   7.584  13.174
  1148G11  C00B78700   0.190   7.581  13.303
  1148G11  C01578701   0.300   7.663  13.344
  1148G11  C07F78702   0.337   7.659  13.474
  1148G11  C07E78703   0.449   7.735  13.511
  1148G11  C06W78704   0.519   7.813  13.416
  1148G11  C06V78705   0.476   7.817  13.286
  1148G11  C06X78706   0.645   7.869  13.443
  1148G11  C07B78707   0.700   7.842  13.571
  1148G11  C07C78708   0.624   7.772  13.664
  1148G11  C0FU78709   0.683   7.745  13.787
  1148G11  C0F778710   0.619   7.671  13.880
  1148G11  C0F678711   0.685   7.641  14.003
  1148G11  C0F878712   0.612   7.567  14.100
  1148G11  C0F978713   0.676   7.527  14.216
  1148G11  C0FA78714   0.614   7.440  14.302
  1148G11  C0FZ78715   0.484   7.409  14.279
  1148G11  C0G078716   0.418   7.318  14.366
  1148G11  C0GD78717   0.475   7.275  14.486
  1148G11  C0FC78718   0.613   7.307  14.507
  1148G11  C0GH78719   0.673   7.247  14.619
  1148G11  C0EY78720   0.810   7.276  14.640
  1148G11  C0EX78721   0.874   7.232  14.756
  1148G11  C0EW78722   1.011   7.275  14.782
  1148G11  C0FR78723   1.083   7.225  14.892
  1148G11  H01D78724   1.184   7.253  14.917
  1148G11  C0FS78725   1.017   7.136  14.985
  1148G11  H01C78726   1.068   7.095  15.071
  1148G11  C0GJ78727   0.888   7.101  14.959
  1148G11  H01N78728   0.840   7.035  15.029
  1148G11  C0EV78729   1.073   7.364  14.697
  1148G11  C0FT78730   1.185   7.436  14.745
  1148G11  H01E78731   1.244   7.429  14.835
  1148G11  C0EU78732   1.008   7.402  14.578
  1148G11  C0ET78733   1.065   7.490  14.490
  1148G11  C0EI78734   1.013   7.545  14.375
  1148G11  C0F178735   0.880   7.507  14.347
  1148G11  C0F078736   0.813   7.418  14.437
  1148G11  C0EH78737   1.084   7.638  14.291
  1148G11  C0EG78738   1.218   7.684  14.319
  1148G11  C0EJ78739   1.017   7.683  14.172
  1148G11  C0F378740   0.881   7.652  14.150
  1148G11  C0EK78741   1.085   7.759  14.078
  1148G11  C0EL78742   1.223   7.804  14.105
  1148G11  C0EM78743   1.278   7.877  13.991
  1148G11  C0EN78744   1.200   7.904  13.878
  1148G11  C07I78745   1.273   7.970  13.779
  1148G11  C07478746   1.218   8.011  13.665
  1148G11  C07378747   1.301   8.069  13.574
  1148G11  C07278748   1.241   8.101  13.450
  1148G11  C07578749   1.088   7.968  13.643
  1148G11  C07678750   1.014   7.902  13.739
  1148G11  C07878751   0.886   7.862  13.719
  1148G11  C07G78752   1.029   8.005  13.524
  1148G11  C07078753   0.902   7.955  13.498
  1148G11  C07Z78754   1.397   8.000  13.825
  1148G11  C07778755   1.068   7.873  13.860
  1148G11  C0EO78756   1.014   7.802  13.961
  1148G11  C0F478757   0.882   7.759  13.937
  1148G11  C0EQ78758   1.187   7.546  14.529
  1148G11  C0FQ78759   0.814   7.146  14.845
  1148G11  C0GI78760   0.680   7.111  14.808
  1148G11  H01L78761   0.619   7.050  14.873
  1148G11  C0EZ78762   0.879   7.362  14.550
  1148G11  C0GG78763   0.608   7.160  14.701
  1148G11  C0GF78764   0.473   7.139  14.685
  1148G11  H01M78765   0.418   7.086  14.761
  1148G11  C0GE78766   0.406   7.198  14.578
  1148G11  H01K78767   0.300   7.176  14.570
  1148G11  O00J78768   0.291   7.278  14.350
  1148G11  C0GA78769   0.229   7.310  14.231
  1148G11  C0G978770   0.100   7.266  14.210
  1148G11  H01H78771   0.050   7.201  14.282
  1148G11  C0G878772   0.031   7.298  14.089
  1148G11  C0G778773  -0.101   7.262  14.056
  1148G11  H01I78774  -0.158   7.197  14.121
  1148G11  O00I78775  -0.168   7.300  13.943
  1148G11  C0G678776  -0.092   7.365  13.849
  1148G11  H01J78777  -0.148   7.404  13.765
  1148G11  C02D78778   0.040   7.403  13.869
  1148G11  C02C78779   0.119   7.460  13.764
  1148G11  C01778780   0.096   7.436  13.629
  1148G11  C01678781   0.159   7.511  13.531
  1148G11  O00178782   0.006   7.340  13.591
  1148G11  C01878783  -0.022   7.313  13.457
  1148G11  C00978784   0.030   7.395  13.360
  1148G11  C00878785   0.010   7.387  13.217
  1148G11  C00778786  -0.050   7.294  13.125
  1148G11  C00678787  -0.129   7.183  13.169
  1148G11  C00578788  -0.191   7.096  13.076
  1148G11  C00478789  -0.180   7.079  12.930
  1148G11  C00378790  -0.103   7.150  12.832
  1148G11  C00278791  -0.089   7.101  12.695
  1148G11  C00P78792  -0.015   7.175  12.597
  1148G11  C00O78793  -0.010   7.130  12.463
  1148G11  C00N78794   0.067   7.197  12.362
  1148G11  C01078795   0.071   7.152  12.233
  1148G11  C01178796   0.149   7.221  12.130
  1148G11  C01Q78797   0.156   7.169  12.002
  1148G11  C01U78798   0.084   7.055  11.966
  1148G11  C01278799   0.003   6.996  12.065
  1148G11  H00078800  -0.062   6.914  12.039
  1148G11  C01V78801   0.099   6.999  11.836
  1148G11  H00778802   0.059   6.903  11.809
  1148G11  O00578803   0.194   7.047  11.749
  1148G11  C01W78804   0.235   7.176  11.776
  1148G11  C03178805   0.297   7.243  11.670
  1148G11  C03278806   0.360   7.367  11.697
  1148G11  H00A78807   0.410   7.430  11.625
  1148G11  C03378808   0.362   7.421  11.828
  1148G11  H00B78809   0.414   7.512  11.853
  1148G11  C01O78810   0.301   7.351  11.934
  1148G11  C01N78811   0.301   7.401  12.066
  1148G11  C01M78812   0.392   7.513  12.109
  1148G11  C01L78813   0.505   7.610  12.079
  1148G11  C01K78814   0.511   7.699  12.186
  1148G11  C01Y78815   0.608   7.800  12.208
  1148G11  C02I78816   0.701   7.827  12.114
  1148G11  C02N78817   0.796   7.928  12.140
  1148G11  C02M78818   0.896   7.950  12.042
  1148G11  C02L78819   0.899   7.879  11.920
  1148G11  C02K78820   0.798   7.777  11.904
  1148G11  C02U78821   0.810   7.707  11.782
  1148G11  C02V78822   0.889   7.748  11.680
  1148G11  C03H78823   0.874   7.689  11.553
  1148G11  H00C78824   0.797   7.617  11.528
  1148G11  C02W78825   0.755   7.579  11.784
  1148G11  C02X78826   0.661   7.542  11.877
  1148G11  C02Y78827   0.648   7.399  11.865
  1148G11  H00878828   0.591   7.327  11.922
  1148G11  C02Z78829   0.725   7.364  11.742
  1148G11  O00478830   0.729   7.254  11.682
  1148G11  O00378831   0.780   7.477  11.695
  1148G11  C02J78832   0.703   7.744  11.998
  1148G11  C01Z78833   0.595   7.861  12.332
  1148G11  C02078834   0.504   7.817  12.433
  1148G11  C01I78835   0.416   7.718  12.406
  1148G11  C01H78836   0.329   7.661  12.493
  1148G11  C00K78837   0.249   7.550  12.459
  1148G11  C01S78838   0.257   7.497  12.330
  1148G11  C01478839   0.204   7.376  12.295
  1148G11  C00J78840   0.177   7.486  12.556
  1148G11  C00I78841   0.181   7.533  12.684
  1148G11  C00H78842   0.260   7.644  12.716
  1148G11  C00G78843   0.274   7.687  12.845
  1148G11  C00S78844   0.108   7.467  12.783
  1148G11  C00T78845   0.114   7.523  12.904
  1148G11  C00U78846   0.044   7.448  13.006
  1148G11  C00R78847   0.037   7.346  12.755
  1148G11  C00L78848   0.115   7.367  12.527
  1148G11  C02878849   0.335   7.709  12.620
  1148G11  C02378850   0.421   7.806  12.658
  1148G11  C02478851   0.442   7.837  12.791
  1148G11  C02178852   0.512   7.860  12.561
  1148G11  C02278853   0.605   7.952  12.596
  1148G11  C02H78854   0.622   7.985  12.728
  1148G11  C03078855   0.731   8.059  12.765
  1148G11  C03478856   0.811   8.119  12.671
  1148G11  C02P78857   0.688   8.000  12.499
  1148G11  C02B78858   0.691   7.952  12.363
  1148G11  C01J78859   0.409   7.669  12.277
  1148G11  C01X78860   0.617   7.620  11.988
  1148G11  C01T78861   0.345   7.557  12.239
  1148G11  H00978862   0.295   7.211  11.567
  1148G11  C01P78863   0.227   7.236  11.906
  1148G11  C01R78864   0.220   7.331  12.164
  1148G11  C00Z78865  -0.009   7.045  12.198
  1148G11  O00078866  -0.086   6.976  12.294
  1148G11  C00M78867   0.135   7.308  12.396
  1148G11  C00Y78868  -0.075   7.012  12.428
  1148G11  C01378869  -0.147   6.942  12.523
  1148G11  H00178870  -0.206   6.856  12.494
  1148G11  C00Q78871   0.045   7.295  12.629
  1148G11  C00178872  -0.160   6.988  12.652
  1148G11  C00078873  -0.245   6.933  12.749
  1148G11  H00678874  -0.310   6.854  12.714
  1148G11  C00W78875  -0.032   7.271  12.857
  1148G11  C01G78876  -0.250   6.968  12.882
  1148G11  H00578877  -0.319   6.912  12.944
  1148G11  C01C78878  -0.276   7.019  13.162
  1148G11  H00278879  -0.360   6.954  13.141
  1148G11  C01B78880  -0.243   7.048  13.302
  1148G11  C01D78881  -0.299   6.991  13.420
  1148G11  H00378882  -0.367   6.907  13.416
  1148G11  C01E78883  -0.255   7.045  13.533
  1148G11  H00478884  -0.290   6.986  13.617
  1148G11  O00278885  -0.163   7.147  13.549
  1148G11  C01A78886  -0.158   7.152  13.305
  1148G11  C00V78887  -0.020   7.327  12.992
  1148G11  C01978888  -0.110   7.207  13.432
  1148G11  C02E78889   0.240   7.524  13.799
  1148G11  C0FX78890   0.287   7.509  13.927
  1148G11  C0FW78891   0.418   7.558  13.952
  1148G11  C0GB78892   0.225   7.427  14.016
  1148G11  C0G378893   0.309   7.591  13.701
  1148G11  C07H78894   0.428   7.656  13.728
  1148G11  C0GC78895   0.098   7.378  13.992
  1148G11  C0G278896   0.288   7.397  14.135
  1148G11  C0G178897   0.417   7.446  14.166
  1148G11  C0FB78898   0.680   7.391  14.412
  1148G11  C0F278899   0.812   7.565  14.241
  1148G11  C0FY78900   0.483   7.528  14.075
  1148G11  C0F578901   0.819   7.685  14.030
  1148G11  C0FV78902   0.488   7.631  13.855
  1148G11  C07978903   0.814   7.792  13.818
  1148G11  C07A78904   0.829   7.887  13.596
  1148G11  C06Y78905   0.718   7.939  13.347
  1148G11  C07D78906   0.495   7.729  13.639
  1148G11  C01F78907   0.267   7.585  13.571
  1148G11  C00A78908   0.121   7.498  13.399
  1148G11  C00X78909   0.059   7.489  13.135
  1148G11  C00F78910   0.197   7.626  12.942
  1148G11  C02978911   0.364   7.743  13.248
  1148G11  C02578912   0.364   7.780  12.884
  1148G11  C06U78913   0.540   7.891  13.193
  1148G11  C02A78914   0.549   7.920  12.825
  1148G11  C05Y78915   0.773   8.072  12.897
  1148G11  C05Z78916   0.894   8.143  12.926
  1148G11  C06078917   0.970   8.203  12.831
  1148G11  C06278918   1.096   8.254  12.852
  1148G11  C06T78919   0.662   7.954  13.223
  1148G11  C06A78920   0.941   8.132  13.056
  1148G11  C06Z78921   0.850   7.983  13.375
  1148G11  C06Q78922   1.107   8.070  13.428
  1148G11  C06878923   1.076   8.178  13.081
  1148G11  C06778924   1.151   8.241  12.980
  1148G11  C06378925   1.550   8.355  13.066
  1148G11  C06C78926   1.683   8.386  13.101
  1148G11  C06D78927   1.763   8.454  13.019
  1148G11  C06E78928   1.900   8.487  13.038
  1148G11  C07Q78929   1.956   8.439  13.149
  1148G11  C07P78930   1.875   8.373  13.250
  1148G11  C07T78931   1.934   8.335  13.370
  1148G11  C07U78932   1.858   8.271  13.462
  1148G11  C07V78933   1.911   8.231  13.585
  1148G11  C08478934   2.049   8.247  13.605
  1148G11  C08C78935   2.126   8.297  13.505
  1148G11  C08B78936   2.259   8.316  13.528
  1148G11  C08A78937   2.333   8.366  13.425
  1148G11  C08978938   2.284   8.409  13.307
  1148G11  C08878939   2.371   8.475  13.216
  1148G11  C08778940   2.316   8.527  13.099
  1148G11  C08678941   2.173   8.516  13.075
  1148G11  C08X78942   2.510   8.498  13.243
  1148G11  C08T78943   2.565   8.425  13.365
  1148G11  C08D78944   2.150   8.408  13.291
  1148G11  C08U78945   2.470   8.373  13.450
  1148G11  C08V78946   2.525   8.329  13.565
  1148G11  C0CY78947   2.457   8.278  13.667
  1148G11  C0CX78948   2.518   8.238  13.779
  1148G11  C0CW78949   2.443   8.186  13.883
  1148G11  C0CV78950   2.305   8.182  13.865
  1148G11  C0D478951   2.241   8.218  13.744
  1148G11  C0CU78952   2.229   8.143  13.966
  1148G11  C0CT78953   2.286   8.104  14.091
  1148G11  C0CS78954   2.424   8.109  14.106
  1148G11  C0D678955   2.093   8.132  13.946
  1148G11  C0EC78956   2.028   8.163  13.827
  1148G11  C07X78957   1.892   8.143  13.809
  1148G11  C0DL78958   2.015   8.093  14.049
  1148G11  C0DK78959   1.878   8.085  14.035
  1148G11  C0DN78960   1.828   8.042  14.151
  1148G11  C0D878961   2.063   8.064  14.175
  1148G11  C08W78962   2.660   8.343  13.564
  1148G11  C0CQ78963   2.733   8.307  13.684
  1148G11  C09378964   2.317   8.270  13.646
  1148G11  C09278965   2.106   8.207  13.723
  1148G11  C08578966   2.071   8.349  13.387
  1148G11  C07S78967   2.095   8.455  13.172
  1148G11  C06F78968   1.979   8.555  12.948
  1148G11  C07O78969   1.741   8.347  13.221
  1148G11  C07N78970   1.663   8.280  13.318
  1148G11  C05D78971   1.705   8.509  12.911
  1148G11  C05C78972   1.779   8.583  12.819
  1148G11  C05N78973   1.706   8.583  12.704
  1148G11  C05M78974   1.372   8.410  12.653
  1148G11  C05I78975   1.175   8.304  12.747
  1148G11  C06178976   0.926   8.196  12.704
  1148G11  C02Q78977   0.780   8.089  12.540
  1148G11  C02O78978   0.785   7.989  12.268
  1148G11  C03Q78979   1.037   8.225  12.369
  1148G11  C03O78980   1.224   8.285  12.235
  1148G11  C03L78981   1.308   8.200  11.895
  1148G11  C02S78982   1.006   8.051  12.056
  1148G11  C02T78983   0.991   7.909  11.823
  1148G11  C03K78984   1.299   8.130  11.764
  1148G11  C03I78985   0.980   7.849  11.700
  1148G11  C03G78986   0.949   7.730  11.445
  1148G11  H00D78987   0.950   7.695  11.342
  1148G11  C03J78988   1.269   7.985  11.519
  1148G11  C03W78989   1.462   7.996  11.314
  1148G11  C04I78990   1.586   8.159  11.435
  1148G11  C04K78991   1.822   8.277  11.515
  1148G11  C04N78992   1.934   8.340  11.567
  1148G11  C04X78993   2.055   8.456  11.745
  1148G11  C05078994   2.188   8.550  11.936
  1148G11  C05W78995   1.932   8.574  12.073
  1148G11  C05S78996   2.281   8.667  12.375
  1148G11  C05R78997   1.937   8.668  12.359
  1148G11  C05O78998   1.772   8.624  12.592
  1148G11  C05B78999   1.919   8.602  12.833
  1148G11  C05A79000   2.181   8.679  12.597
  1148G11  C07R79001   2.121   8.566  12.957
  1148G11  C08N79002   2.399   8.569  12.992
  1148G11  C08M79003   2.536   8.590  13.021
  1148G11  C08L79004   2.617   8.640  12.918
  1148G11  C09179005   2.309   8.651  12.526
  1148G11  C09K79006   2.649   8.561  12.480
  1148G11  H00M79007   2.611   8.493  12.406
  1148G11  C08K79008   2.562   8.651  12.785
  1148G11  C09J79009   2.787   8.586  12.524
  1148G11  C09I79010   2.916   8.523  12.530
  1148G11  C09L79011   2.995   8.470  12.425
  1148G11  H00N79012   2.965   8.459  12.322
  1148G11  C09Q79013   3.125   8.440  12.460
  1148G11  H00O79014   3.182   8.393  12.381
  1148G11  O00B79015   3.185   8.452  12.584
  1148G11  C09G79016   3.109   8.500  12.693
  1148G11  C09F79017   3.173   8.509  12.823
  1148G11  O00A79018   3.300   8.453  12.820
  1148G11  C09P79019   3.374   8.481  12.932
  1148G11  H00P79020   3.468   8.532  12.919
  1148G11  C09O79021   3.316   8.465  13.061
  1148G11  C09D79022   3.185   8.516  13.069
  1148G11  C09C79023   3.111   8.538  13.188
  1148G11  C09N79024   3.115   8.488  13.324
  1148G11  C09T79025   3.197   8.385  13.362
  1148G11  C09S79026   3.322   8.358  13.295
  1148G11  C0CP79027   3.392   8.282  13.386
  1148G11  C0CN79028   3.324   8.249  13.504
  1148G11  C0CO79029   3.386   8.167  13.601
  1148G11  H01479030   3.337   8.119  13.684
  1148G11  C0CZ79031   3.522   8.150  13.585
  1148G11  H01579032   3.570   8.105  13.670
  1148G11  C0D079033   3.596   8.185  13.467
  1148G11  C0G579034   3.738   8.180  13.447
  1148G11  H01F79035   3.801   8.160  13.532
  1148G11  C0G479036   3.791   8.198  13.329
  1148G11  H01G79037   3.898   8.187  13.318
  1148G11  O00H79038   3.723   8.222  13.214
  1148G11  C0D279039   3.592   8.272  13.241
  1148G11  C09V79040   3.529   8.356  13.147
  1148G11  H00Q79041   3.590   8.370  13.058
  1148G11  C0D179042   3.525   8.243  13.359
  1148G11  C09R79043   3.392   8.408  13.172
  1148G11  C09H79044   2.978   8.543  12.661
  1148G11  C09E79045   3.112   8.552  12.946
  1148G11  C09B79046   2.996   8.618  13.195
  1148G11  C08Z79047   2.756   8.648  12.944
  1148G11  C08O79048   2.592   8.559  13.150
  1148G11  C09A79049   2.933   8.627  13.320
  1148G11  C08S79050   2.689   8.400  13.437
  1148G11  C09979051   3.010   8.539  13.401
  1148G11  C09U79052   3.195   8.321  13.493
  1148G11  C0BO79053   3.130   8.257  13.953
  1148G11  C0CL79054   2.875   8.314  13.688
  1148G11  C0D379055   2.656   8.252  13.791
  1148G11  C0D579056   2.503   8.150  14.001
  1148G11  C0BR79057   2.915   8.197  14.038
  1148G11  C0BQ79058   3.049   8.210  14.058
  1148G11  C0BL79059   3.331   8.245  14.096
  1148G11  C0AF79060   3.435   8.220  14.345
  1148G11  C0BH79061   3.087   8.126  14.413
  1148G11  C0BG79062   3.011   8.084  14.521
  1148G11  C0BD79063   3.200   8.103  14.670
  1148G11  C0AG79064   3.477   8.224  14.473
  1148G11  C0AI79065   3.672   8.221  14.619
  1148G11  C0AV79066   3.799   8.139  14.837
  1148G11  C0BB79067   3.441   8.139  14.947
  1148G11  O00C79068   3.763   7.993  15.031
  1148G11  C0BC79069   3.393   8.063  15.048
  1148G11  C0B979070   3.254   8.094  14.799
  1148G11  O00E79071   2.986   7.908  14.967
  1148G11  C0CA79072   2.852   7.905  14.956
  1148G11  O00F79073   2.787   7.880  15.059
  1148G11  C0BF79074   3.069   8.063  14.645
  1148G11  C0C579075   2.792   7.938  14.834
  1148G11  C0C479076   2.651   7.919  14.819
  1148G11  H01179077   2.597   7.870  14.899
  1148G11  C0C879078   2.877   8.053  14.501
  1148G11  C0C279079   2.593   7.945  14.695
  1148G11  C0C379080   2.455   7.920  14.668
  1148G11  C0DY79081   2.365   7.868  14.755
  1148G11  H01679082   2.374   7.826  14.855
  1148G11  C0DX79083   2.243   7.877  14.686
  1148G11  C0DW79084   2.135   7.806  14.743
  1148G11  C0BY79085   2.683   8.056  14.358
  1148G11  C0DB79086   2.396   7.955  14.556
  1148G11  C0CC79087   2.479   8.074  14.223
  1148G11  C0D779088   2.205   8.058  14.198
  1148G11  C0DZ79089   2.260   7.931  14.552
  1148G11  C0DM79090   1.937   8.026  14.243
  1148G11  C0DQ79091   1.964   7.843  14.557
  1148G11  C0DV79092   2.016   7.781  14.676
  1148G11  C0E079093   2.133   7.742  14.871
  1148G11  C0FO79094   1.837   7.678  15.048
  1148G11  C0E379095   2.153   7.794  15.009
  1148G11  H01779096   2.203   7.884  15.040
  1148G11  C0GV79097   1.844   7.745  15.169
  1148G11  C0ES79098   1.715   7.694  14.977
  1148G11  C0GQ79099   1.503   7.815  15.259
  1148G11  C0FJ79100   1.231   7.755  15.009
  1148G11  C0ED79101   1.459   7.715  14.844
  1148G11  C0ER79102   1.231   7.525  14.656
  1148G11  C0EP79103   1.264   7.636  14.453
  1148G11  C0E679104   1.599   7.738  14.628
  1148G11  C0DE79105   1.647   7.878  14.359
  1148G11  C0EA79106   1.293   7.765  14.229
  1148G11  C0DF79107   1.612   7.954  14.247
  1148G11  C08079108   1.406   7.935  13.954
  1148G11  C0DO79109   1.695   8.007  14.147
  1148G11  C0DJ79110   1.815   8.098  13.908
  1148G11  C07K79111   1.484   8.073  13.737
  1148G11  C07W79112   1.830   8.173  13.684
  1148G11  C08379113   1.720   8.246  13.439
  1148G11  C07J79114   1.432   8.101  13.610
  1148G11  C06O79115   1.321   8.164  13.355
  1148G11  C06M79116   1.530   8.258  13.288
  1158G11  C07179117   0.961   6.323   7.857
  1158G11  C07L79118   0.882   6.209   7.888
  1158G11  C07M79119   0.930   6.078   7.875
  1158G11  C07Y79120   0.846   5.965   7.902
  1158G11  C08179121   0.713   5.977   7.941
  1158G11  C08279122   0.634   5.861   7.969
  1158G11  C0DI79123   0.490   5.849   8.003
  1158G11  C0DH79124   0.381   5.939   8.021
  1158G11  C0DG79125   0.252   5.867   7.997
  1158G11  C0E979126   0.119   5.889   8.063
  1158G11  C0E879127   0.074   5.750   8.102
  1158G11  C0E779128  -0.042   5.703   8.173
  1158G11  C0EB79129  -0.150   5.799   8.193
  1158G11  C0EF79130  -0.289   5.775   8.244
  1158G11  C0EE79131  -0.325   5.710   8.359
  1158G11  C0FD79132  -0.397   5.778   8.465
  1158G11  C0FE79133  -0.417   5.915   8.481
  1158G11  H01B79134  -0.362   5.981   8.417
  1158G11  C0FF79135  -0.477   5.971   8.593
  1158G11  H01A79136  -0.486   6.077   8.613
  1158G11  C0FG79137  -0.534   5.891   8.689
  1158G11  H01879138  -0.582   5.948   8.767
  1158G11  C0FH79139  -0.534   5.753   8.670
  1158G11  C0FI79140  -0.615   5.663   8.748
  1158G11  H01979141  -0.687   5.706   8.816
  1158G11  O00K79142  -0.591   5.531   8.746
  1158G11  C0FL79143  -0.498   5.482   8.660
  1158G11  C0FK79144  -0.439   5.559   8.560
  1158G11  C0FM79145  -0.354   5.501   8.460
  1158G11  C0FN79146  -0.348   5.358   8.461
  1158G11  C0FP79147  -0.401   5.282   8.569
  1158G11  C0GO79148  -0.383   5.145   8.590
  1158G11  C0GN79149  -0.398   5.073   8.707
  1158G11  C0GR79150  -0.466   5.139   8.812
  1158G11  C0GS79151  -0.485   5.089   8.941
  1158G11  H01Q79152  -0.531   5.149   9.018
  1158G11  C0GT79153  -0.442   4.960   8.961
  1158G11  H01O79154  -0.433   4.906   9.054
  1158G11  C0GU79155  -0.381   4.892   8.854
  1158G11  H01P79156  -0.339   4.796   8.879
  1158G11  O00L79157  -0.507   5.269   8.786
  1158G11  C0GM79158  -0.350   4.940   8.723
  1158G11  C0GL79159  -0.266   4.884   8.619
  1158G11  H01R79160  -0.213   4.791   8.633
  1158G11  C0GK79161  -0.250   4.954   8.498
  1158G11  C0GP79162  -0.168   4.947   8.381
  1158G11  C0E279163  -0.216   5.053   8.288
  1158G11  C0E179164  -0.113   5.071   8.190
  1158G11  C0DU79165  -0.052   5.194   8.166
  1158G11  C0DT79166  -0.091   5.326   8.197
  1158G11  C0E479167  -0.194   5.369   8.279
  1158G11  C0E579168  -0.193   5.510   8.283
  1158G11  C0DS79169  -0.016   5.437   8.162
  1158G11  C0DR79170   0.108   5.410   8.101
  1158G11  C0DD79171   0.200   5.505   8.070
  1158G11  C0DC79172   0.321   5.423   8.031
  1158G11  C0DP79173   0.287   5.284   8.018
  1158G11  C0DA79174   0.365   5.173   7.961
  1158G11  C0D979175   0.495   5.169   7.889
  1158G11  C0CR79176   0.529   5.054   7.808
  1158G11  C0C079177   0.450   4.946   7.797
  1158G11  C0BZ79178   0.479   4.828   7.727
  1158G11  C0C179179   0.393   4.714   7.742
  1158G11  C0C779180   0.420   4.600   7.665
  1158G11  C0C679181   0.336   4.485   7.673
  1158G11  C0C979182   0.358   4.380   7.586
  1158G11  C0B879183   0.269   4.269   7.593
  1158G11  C0B779184   0.275   4.166   7.500
  1158G11  C0B679185   0.206   4.037   7.487
  1158G11  C0B579186   0.167   3.964   7.602
  1158G11  H00Z79187   0.155   4.009   7.699
  1158G11  C0B479188   0.186   3.822   7.571
  1158G11  H01079189   0.197   3.744   7.644
  1158G11  C0B379190   0.223   3.806   7.435
  1158G11  C0AP79191   0.327   3.734   7.354
  1158G11  C0AQ79192   0.388   3.841   7.285
  1158G11  C0AR79193   0.515   3.824   7.236
  1158G11  C0AS79194   0.579   3.940   7.201
  1158G11  C0AT79195   0.540   4.061   7.254
  1158G11  C0BA79196   0.413   4.080   7.309
  1158G11  C0AU79197   0.633   4.160   7.274
  1158G11  C0BE79198   0.602   4.272   7.344
  1158G11  C0BI79199   0.700   4.370   7.357
  1158G11  C0BJ79200   0.831   4.353   7.313
  1158G11  C0BK79201   0.930   4.445   7.324
  1158G11  C0BW79202   0.898   4.565   7.388
  1158G11  C0BV79203   0.771   4.582   7.440
  1158G11  C0BU79204   0.744   4.700   7.513
  1158G11  C0BX79205   0.624   4.701   7.586
  1158G11  C0BT79206   0.833   4.801   7.515
  1158G11  C0CD79207   0.800   4.917   7.590
  1158G11  C0CB79208   0.682   4.934   7.656
  1158G11  C0CE79209   0.897   5.012   7.605
  1158G11  C0CK79210   1.020   5.001   7.540
  1158G11  C0BS79211   1.055   4.883   7.476
  1158G11  C0CJ79212   1.183   4.868   7.416
  1158G11  C0BP79213   1.212   4.747   7.356
  1158G11  C0CI79214   1.338   4.722   7.298
  1158G11  C0CH79215   1.375   4.592   7.272
  1158G11  H01279216   1.478   4.576   7.243
  1158G11  C0BN79217   1.281   4.488   7.255
  1158G11  C0CG79218   1.312   4.371   7.201
  1158G11  C0CF79219   1.446   4.348   7.144
  1158G11  H01379220   1.536   4.403   7.167
  1158G11  O00G79221   1.472   4.240   7.067
  1158G11  C0AA79222   1.383   4.132   7.071
  1158G11  C0A979223   1.421   4.014   7.011
  1158G11  H00U79224   1.517   4.002   6.963
  1158G11  C0A879225   1.334   3.903   7.016
  1158G11  H00V79226   1.380   3.815   6.973
  1158G11  C0A779227   1.204   3.905   7.074
  1158G11  C0A679228   1.162   4.034   7.128
  1158G11  C0A579229   1.032   4.069   7.166
  1158G11  C0A479230   0.923   3.976   7.141
  1158G11  C0A379231   0.906   3.833   7.116
  1158G11  C0A279232   1.006   3.739   7.107
  1158G11  C0A179233   0.987   3.600   7.082
  1158G11  C0A079234   0.869   3.508   7.092
  1158G11  C09Z79235   0.899   3.377   7.052
  1158G11  C09Y79236   0.796   3.274   7.055
  1158G11  H00Y79237   0.815   3.172   7.023
  1158G11  C09X79238   0.674   3.312   7.122
  1158G11  C09W79239   0.590   3.201   7.146
  1158G11  H00R79240   0.611   3.100   7.116
  1158G11  C0AX79241   0.468   3.218   7.210
  1158G11  H00S79242   0.400   3.137   7.231
  1158G11  C0AW79243   0.442   3.346   7.253
  1158G11  H00T79244   0.349   3.372   7.301
  1158G11  C0AN79245   0.520   3.458   7.222
  1158G11  C0AO79246   0.484   3.591   7.249
  1158G11  C0AM79247   0.646   3.435   7.159
  1158G11  C0B279248   1.031   3.327   7.016
  1158G11  O00D79249   1.049   3.211   6.993
  1158G11  C0B179250   1.136   3.418   7.003
  1158G11  H00W79251   1.234   3.375   6.986
  1158G11  C0AL79252   0.739   3.545   7.140
  1158G11  C0AK79253   0.686   3.679   7.153
  1158G11  C0B079254   1.109   3.555   7.030
  1158G11  C0AZ79255   1.204   3.659   7.029
  1158G11  H00X79256   1.304   3.641   6.993
  1158G11  C0AJ79257   0.770   3.800   7.137
  1158G11  C0AH79258   0.792   4.026   7.158
  1158G11  C0AE79259   0.992   4.198   7.212
  1158G11  C0AD79260   1.092   4.293   7.228
  1158G11  C0AY79261   1.139   3.777   7.072
  1158G11  C0AB79262   1.248   4.145   7.122
  1158G11  C0AC79263   1.215   4.272   7.179
  1158G11  C0BM79264   1.155   4.515   7.299
  1158G11  C0CM79265   1.417   4.832   7.257
  1158G11  C09M79266   1.406   4.950   7.339
  1158G11  C09879267   1.534   5.028   7.350
  1158G11  C08R79268   1.550   5.160   7.402
  1158G11  C08Q79269   1.685   5.206   7.389
  1158G11  C08P79270   1.755   5.333   7.381
  1158G11  C08Y79271   1.881   5.325   7.321
  1158G11  C09779272   1.922   5.206   7.260
  1158G11  C09679273   1.991   5.224   7.142
  1158G11  C09079274   2.036   5.359   7.155
  1158G11  C09579275   2.087   5.439   7.050
  1158G11  C09479276   2.126   5.570   7.062
  1158G11  C08J79277   2.075   5.671   7.146
  1158G11  C08I79278   2.078   5.791   7.072
  1158G11  C08H79279   1.987   5.885   7.144
  1158G11  C08G79280   1.908   5.802   7.240
  1158G11  C08F79281   1.806   5.827   7.345
  1158G11  C08E79282   1.782   5.955   7.400
  1158G11  C05979283   1.848   6.078   7.370
  1158G11  C05879284   1.819   6.196   7.438
  1158G11  C05779285   1.882   6.320   7.415
  1158G11  C05679286   1.997   6.320   7.321
  1158G11  C05579287   2.043   6.207   7.266
  1158G11  C05479288   2.114   6.233   7.152
  1158G11  C05379289   2.093   6.370   7.114
  1158G11  C05279290   2.120   6.431   6.985
  1158G11  C05179291   2.193   6.367   6.879
  1158G11  C05U79292   2.221   6.223   6.868
  1158G11  C05T79293   2.187   6.107   6.947
  1158G11  C06K79294   2.277   5.999   6.911
  1158G11  H00J79295   2.282   5.913   6.976
  1158G11  C06L79296   2.337   6.037   6.782
  1158G11  H00I79297   2.384   5.977   6.706
  1158G11  C05V79298   2.313   6.178   6.772
  1158G11  C06J79299   2.355   6.254   6.669
  1158G11  H00K79300   2.422   6.211   6.595
  1158G11  C05X79301   2.316   6.389   6.659
  1158G11  C06I79302   2.352   6.477   6.558
  1158G11  H00L79303   2.410   6.433   6.478
  1158G11  C04Z79304   2.312   6.612   6.548
  1158G11  C06H79305   2.340   6.690   6.432
  1158G11  H00H79306   2.396   6.644   6.352
  1158G11  C04Y79307   2.298   6.829   6.425
  1158G11  C06G79308   2.334   6.908   6.308
  1158G11  O00979309   2.394   6.863   6.212
  1158G11  O00879310   2.294   7.036   6.309
  1158G11  C04P79311   2.213   7.086   6.405
  1158G11  C04J79312   2.158   7.223   6.399
  1158G11  C04Q79313   2.192   7.330   6.312
  1158G11  H00E79314   2.259   7.312   6.230
  1158G11  C04M79315   2.150   7.462   6.333
  1158G11  C04R79316   2.179   7.571   6.251
  1158G11  H00F79317   2.243   7.558   6.165
  1158G11  C04S79318   2.135   7.696   6.277
  1158G11  H00G79319   2.164   7.770   6.203
  1158G11  O00779320   2.045   7.732   6.377
  1158G11  C03V79321   2.006   7.623   6.455
  1158G11  C03U79322   1.911   7.647   6.556
  1158G11  O00679323   1.845   7.767   6.551
  1158G11  C03F79324   1.745   7.789   6.635
  1158G11  C03E79325   1.702   7.691   6.730
  1158G11  C03D79326   1.766   7.569   6.736
  1158G11  C03C79327   1.728   7.474   6.834
  1158G11  C03B79328   1.617   7.509   6.913
  1158G11  C03A79329   1.575   7.419   7.008
  1158G11  C03979330   1.643   7.295   7.034
  1158G11  C03879331   1.573   7.234   7.146
  1158G11  C03779332   1.484   7.337   7.181
  1158G11  C03679333   1.416   7.323   7.300
  1158G11  C02R79334   1.319   7.401   7.347
  1158G11  C03579335   1.278   7.330   7.464
  1158G11  C03R79336   1.354   7.221   7.494
  1158G11  C03S79337   1.291   7.109   7.555
  1158G11  C04979338   1.354   6.986   7.527
  1158G11  C04879339   1.460   6.990   7.436
  1158G11  C03P79340   1.501   7.101   7.347
  1158G11  C04779341   1.530   6.869   7.433
  1158G11  C04679342   1.649   6.846   7.370
  1158G11  C04579343   1.721   6.916   7.272
  1158G11  C03T79344   1.698   7.036   7.205
  1158G11  C04479345   1.790   7.056   7.102
  1158G11  C04379346   1.889   6.953   7.114
  1158G11  C04279347   1.940   6.921   6.990
  1158G11  C04179348   1.898   7.041   6.909
  1158G11  C04079349   1.940   7.066   6.778
  1158G11  C03Z79350   1.948   7.195   6.713
  1158G11  C04H79351   2.038   7.180   6.607
  1158G11  C04G79352   2.089   7.052   6.614
  1158G11  C03N79353   1.884   7.320   6.734
  1158G11  C03Y79354   1.928   7.415   6.638
  1158G11  C03X79355   2.018   7.391   6.531
  1158G11  C04F79356   2.040   6.978   6.717
  1158G11  C04E79357   2.101   6.855   6.735
  1158G11  C04O79358   2.188   6.802   6.638
  1158G11  C04D79359   2.066   6.763   6.841
  1158G11  C04V79360   2.116   6.631   6.848
  1158G11  C04W79361   2.196   6.578   6.748
  1158G11  C04C79362   1.996   6.787   6.958
  1158G11  C04L79363   2.001   6.665   7.039
  1158G11  C04U79364   1.980   6.664   7.178
  1158G11  C05Q79365   1.969   6.546   7.255
  1158G11  C05P79366   1.867   6.550   7.347
  1158G11  C04T79367   1.807   6.675   7.335
  1158G11  C04B79368   1.872   6.740   7.235
  1158G11  C03M79369   1.815   7.132   6.984
  1158G11  C04A79370   1.833   6.867   7.208
  1158G11  C05H79371   1.698   6.725   7.412
  1158G11  C05G79372   1.602   6.666   7.501
  1158G11  C05F79373   1.619   6.546   7.566
  1158G11  C05E79374   1.504   6.484   7.628
  1158G11  C05L79375   1.368   6.511   7.674
  1158G11  C05K79376   1.315   6.641   7.659
  1158G11  C05J79377   1.376   6.756   7.598
  1158G11  C06679378   1.181   6.656   7.712
  1158G11  C06579379   1.109   6.544   7.765
  1158G11  C06479380   1.161   6.412   7.760
  1158G11  C06N79381   0.983   6.557   7.819
  1158G11  C06979382   0.923   6.682   7.828
  1158G11  C06P79383   0.796   6.699   7.892
  1158G11  C06R79384   0.732   6.826   7.881
  1158G11  C06B79385   0.795   6.932   7.826
  1158G11  C06S79386   0.727   7.058   7.824
  1158G11  C02G79387   0.794   7.166   7.771
  1158G11  C02F79388   0.729   7.288   7.745
  1158G11  C02779389   0.600   7.304   7.796
  1158G11  C02679390   0.528   7.420   7.769
  1158G11  C00E79391   0.401   7.430   7.811
  1158G11  C00D79392   0.338   7.549   7.789
  1158G11  C00C79393   0.217   7.573   7.853
  1158G11  C00B79394   0.143   7.472   7.913
  1158G11  C01579395   0.212   7.348   7.929
  1158G11  C07F79396   0.141   7.235   7.979
  1158G11  C07E79397   0.204   7.112   7.988
  1158G11  C06W79398   0.333   7.099   7.943
  1158G11  C06V79399   0.400   7.207   7.889
  1158G11  C06X79400   0.391   6.978   7.946
  1158G11  C07B79401   0.323   6.863   7.975
  1158G11  C07C79402   0.185   6.874   8.011
  1158G11  C0FU79403   0.114   6.756   8.035
  1158G11  C0F779404  -0.025   6.765   8.055
  1158G11  C0F679405  -0.100   6.650   8.069
  1158G11  C0F879406  -0.235   6.660   8.077
  1158G11  C0F979407  -0.310   6.546   8.071
  1158G11  C0FA79408  -0.448   6.556   8.064
  1158G11  C0FZ79409  -0.511   6.684   8.070
  1158G11  C0G079410  -0.652   6.693   8.053
  1158G11  C0GD79411  -0.738   6.585   8.045
  1158G11  C0FC79412  -0.675   6.459   8.050
  1158G11  C0GH79413  -0.757   6.343   8.052
  1158G11  C0EY79414  -0.701   6.216   8.072
  1158G11  C0EX79415  -0.777   6.104   8.096
  1158G11  C0EW79416  -0.720   5.977   8.120
  1158G11  C0FR79417  -0.798   5.861   8.127
  1158G11  H01D79418  -0.752   5.765   8.148
  1158G11  C0FS79419  -0.937   5.867   8.103
  1158G11  H01C79420  -1.013   5.791   8.107
  1158G11  C0GJ79421  -0.990   5.997   8.086
  1158G11  H01N79422  -1.097   6.010   8.086
  1158G11  C0EV79423  -0.584   5.972   8.129
  1158G11  C0FT79424  -0.517   5.860   8.187
  1158G11  H01E79425  -0.568   5.773   8.225
  1158G11  C0EU79426  -0.502   6.084   8.105
  1158G11  C0ET79427  -0.360   6.081   8.096
  1158G11  C0EI79428  -0.271   6.184   8.084
  1158G11  C0F179429  -0.332   6.309   8.073
  1158G11  C0F079430  -0.477   6.315   8.065
  1158G11  C0EH79431  -0.131   6.169   8.083
  1158G11  C0EG79432  -0.072   6.038   8.098
  1158G11  C0EJ79433  -0.050   6.285   8.074
  1158G11  C0F379434  -0.113   6.409   8.070
  1158G11  C0EK79435   0.089   6.272   8.058
  1158G11  C0EL79436   0.148   6.143   8.060
  1158G11  C0EM79437   0.294   6.160   8.048
  1158G11  C0EN79438   0.357   6.277   8.044
  1158G11  C07I79439   0.496   6.270   8.022
  1158G11  C07479440   0.574   6.376   7.987
  1158G11  C07379441   0.704   6.352   7.948
  1158G11  C07279442   0.779   6.467   7.924
  1158G11  C07579443   0.512   6.500   7.990
  1158G11  C07679444   0.378   6.510   8.021
  1158G11  C07879445   0.318   6.632   8.019
  1158G11  C07G79446   0.589   6.613   7.964
  1158G11  C07079447   0.528   6.735   7.966
  1158G11  C07Z79448   0.534   6.140   8.007
  1158G11  C07779449   0.297   6.399   8.048
  1158G11  C0EO79450   0.161   6.392   8.055
  1158G11  C0F479451   0.099   6.518   8.055
  1158G11  C0EQ79452  -0.304   5.958   8.124
  1158G11  C0FQ79453  -0.912   6.112   8.073
  1158G11  C0GI79454  -0.965   6.235   8.037
  1158G11  H01L79455  -1.071   6.233   8.014
  1158G11  C0EZ79456  -0.563   6.205   8.076
  1158G11  C0GG79457  -0.894   6.354   8.030
  1158G11  C0GF79458  -0.944   6.477   8.000
  1158G11  H01M79459  -1.052   6.483   7.987
  1158G11  C0GE79460  -0.875   6.592   8.019
  1158G11  H01K79461  -0.931   6.683   8.014
  1158G11  O00J79462  -0.716   6.815   8.040
  1158G11  C0GA79463  -0.640   6.924   8.036
  1158G11  C0G979464  -0.704   7.048   8.048
  1158G11  H01H79465  -0.812   7.051   8.056
  1158G11  C0G879466  -0.625   7.166   8.075
  1158G11  C0G779467  -0.678   7.302   8.097
  1158G11  H01I79468  -0.785   7.314   8.086
  1158G11  O00I79469  -0.607   7.412   8.113
  1158G11  C0G679470  -0.475   7.393   8.121
  1158G11  H01J79471  -0.419   7.485   8.136
  1158G11  C02D79472  -0.408   7.277   8.089
  1158G11  C02C79473  -0.269   7.273   8.064
  1158G11  C01779474  -0.194   7.393   8.029
  1158G11  C01679475  -0.059   7.381   7.997
  1158G11  O00179476  -0.259   7.509   7.994
  1158G11  C01879477  -0.204   7.614   7.932
  1158G11  C00979478  -0.063   7.609   7.909
  1158G11  C00879479   0.019   7.719   7.847
  1158G11  C00779480  -0.006   7.847   7.775
  1158G11  C00679481  -0.140   7.890   7.751
  1158G11  C00579482  -0.165   8.009   7.667
  1158G11  C00479483  -0.079   8.085   7.581
  1158G11  C00379484   0.060   8.072   7.537
  1158G11  C00279485   0.113   8.161   7.437
  1158G11  C00P79486   0.240   8.133   7.382
  1158G11  C00O79487   0.290   8.206   7.273
  1158G11  C00N79488   0.421   8.189   7.220
  1158G11  C01079489   0.472   8.265   7.116
  1158G11  C01179490   0.598   8.240   7.055
  1158G11  C01Q79491   0.644   8.324   6.951
  1158G11  C01U79492   0.559   8.424   6.899
  1158G11  C01279493   0.424   8.438   6.955
  1158G11  H00079494   0.357   8.517   6.923
  1158G11  C01V79495   0.616   8.504   6.798
  1158G11  H00779496   0.550   8.579   6.757
  1158G11  O00579497   0.739   8.479   6.740
  1158G11  C01W79498   0.810   8.372   6.780
  1158G11  C03179499   0.931   8.338   6.710
  1158G11  C03279500   0.994   8.221   6.740
  1158G11  H00A79501   1.075   8.190   6.676
  1158G11  C03379502   0.948   8.136   6.848
  1158G11  H00B79503   1.003   8.044   6.863
  1158G11  C01O79504   0.840   8.179   6.927
  1158G11  C01N79505   0.809   8.112   7.042
  1158G11  C01M79506   0.897   8.007   7.111
  1158G11  C01L79507   1.023   7.928   7.099
  1158G11  C01K79508   1.016   7.838   7.203
  1158G11  C01Y79509   1.100   7.728   7.229
  1158G11  C02I79510   1.210   7.708   7.150
  1158G11  C02N79511   1.288   7.591   7.182
  1158G11  C02M79512   1.396   7.569   7.093
  1158G11  C02L79513   1.431   7.656   6.986
  1158G11  C02K79514   1.359   7.778   6.975
  1158G11  C02U79515   1.410   7.877   6.892
  1158G11  C02V79516   1.522   7.844   6.807
  1158G11  C03H79517   1.573   7.943   6.718
  1158G11  H00C79518   1.540   8.044   6.701
  1158G11  C02W79519   1.355   8.004   6.892
  1158G11  C02X79520   1.229   8.023   6.952
  1158G11  C02Y79521   1.214   8.165   6.961
  1158G11  H00879522   1.137   8.220   7.014
  1158G11  C02Z79523   1.336   8.220   6.896
  1158G11  O00479524   1.367   8.339   6.880
  1158G11  O00379525   1.418   8.121   6.857
  1158G11  C02J79526   1.239   7.804   7.050
  1158G11  C01Z79527   1.059   7.645   7.336
  1158G11  C02079528   0.941   7.665   7.408
  1158G11  C01I79529   0.860   7.766   7.373
  1158G11  C01H79530   0.733   7.785   7.414
  1158G11  C00K79531   0.656   7.895   7.372
  1158G11  C01S79532   0.704   7.982   7.276
  1158G11  C01479533   0.633   8.078   7.221
  1158G11  C00J79534   0.534   7.917   7.430
  1158G11  C00I79535   0.490   7.835   7.530
  1158G11  C00H79536   0.562   7.725   7.564
  1158G11  C00G79537   0.515   7.629   7.654
  1158G11  C00S79538   0.364   7.860   7.589
  1158G11  C00T79539   0.330   7.769   7.681
  1158G11  C00U79540   0.206   7.792   7.742
  1158G11  C00R79541   0.276   7.956   7.536
  1158G11  C00L79542   0.451   8.020   7.380
  1158G11  C02879543   0.688   7.703   7.513
  1158G11  C02379544   0.763   7.591   7.550
  1158G11  C02479545   0.709   7.497   7.636
  1158G11  C02179546   0.892   7.572   7.497
  1158G11  C02279547   0.969   7.471   7.537
  1158G11  C02H79548   0.912   7.372   7.620
  1158G11  C03079549   0.980   7.255   7.648
  1158G11  C03479550   1.111   7.244   7.607
  1158G11  C02P79551   1.086   7.451   7.475
  1158G11  C02B79552   1.132   7.536   7.370
  1158G11  C01J79553   0.902   7.849   7.274
  1158G11  C01X79554   1.154   7.927   7.035
  1158G11  C01T79555   0.829   7.953   7.223
  1158G11  H00979556   0.969   8.396   6.628
  1158G11  C01P79557   0.762   8.292   6.892
  1158G11  C01R79558   0.681   8.144   7.112
  1158G11  C00Z79559   0.384   8.360   7.064
  1158G11  O00079560   0.258   8.387   7.113
  1158G11  C00M79561   0.500   8.097   7.273
  1158G11  C00Y79562   0.217   8.318   7.222
  1158G11  C01379563   0.095   8.348   7.282
  1158G11  H00179564   0.051   8.439   7.244
  1158G11  C00Q79565   0.322   8.038   7.432
  1158G11  C00179566   0.038   8.267   7.384
  1158G11  C00079567  -0.093   8.285   7.437
  1158G11  H00679568  -0.156   8.359   7.388
  1158G11  C00W79569   0.148   7.973   7.589
  1158G11  C01G79570  -0.143   8.204   7.535
  1158G11  H00579571  -0.238   8.231   7.578
  1158G11  C01C79572  -0.306   8.035   7.692
  1158G11  H00279573  -0.371   8.110   7.649
  1158G11  C01B79574  -0.355   7.931   7.782
  1158G11  C01D79575  -0.486   7.914   7.822
  1158G11  H00379576  -0.563   7.981   7.787
  1158G11  C01E79577  -0.509   7.822   7.916
  1158G11  H00479578  -0.611   7.819   7.950
  1158G11  O00279579  -0.415   7.722   7.953
  1158G11  C01A79580  -0.251   7.846   7.823
  1158G11  C00V79581   0.110   7.883   7.699
  1158G11  C01979582  -0.284   7.733   7.909
  1158G11  C02E79583  -0.204   7.147   8.069
  1158G11  C0FX79584  -0.284   7.029   8.070
  1158G11  C0FW79585  -0.220   6.905   8.075
  1158G11  C0GB79586  -0.422   7.036   8.054
  1158G11  C0G379587  -0.071   7.138   8.050
  1158G11  C07H79588  -0.008   7.015   8.042
  1158G11  C0GC79589  -0.485   7.160   8.070
  1158G11  C0G279590  -0.496   6.916   8.045
  1158G11  C0G179591  -0.432   6.794   8.070
  1158G11  C0FB79592  -0.535   6.442   8.057
  1158G11  C0F279593  -0.256   6.420   8.067
  1158G11  C0FY79594  -0.296   6.785   8.080
  1158G11  C0F579595  -0.039   6.524   8.065
  1158G11  C0FV79596  -0.082   6.895   8.059
  1158G11  C07979597   0.179   6.636   8.037
  1158G11  C07A79598   0.387   6.743   7.985
  1158G11  C06Y79599   0.527   6.964   7.912
  1158G11  C07D79600   0.128   7.003   8.013
  1158G11  C01F79601   0.008   7.253   8.011
  1158G11  C00A79602   0.007   7.491   7.943
  1158G11  C00X79603   0.158   7.693   7.829
  1158G11  C00F79604   0.392   7.647   7.711
  1158G11  C02979605   0.338   7.327   7.877
  1158G11  C02579606   0.584   7.517   7.686
  1158G11  C06U79607   0.537   7.196   7.854
  1158G11  C02A79608   0.785   7.387   7.668
  1158G11  C05Y79609   0.920   7.148   7.716
  1158G11  C05Z79610   0.987   7.024   7.721
  1158G11  C06079611   1.115   7.010   7.667
  1158G11  C06279612   1.178   6.886   7.658
  1158G11  C06T79613   0.597   7.071   7.860
  1158G11  C06A79614   0.922   6.917   7.775
  1158G11  C06Z79615   0.600   6.843   7.920
  1158G11  C06Q79616   0.724   6.593   7.932
  1158G11  C06879617   0.990   6.792   7.776
  1158G11  C06779618   1.118   6.780   7.716
  1158G11  C06379619   1.293   6.392   7.714
  1158G11  C06C79620   1.347   6.264   7.705
  1158G11  C06D79621   1.468   6.234   7.656
  1158G11  C06E79622   1.512   6.108   7.608
  1158G11  C07Q79623   1.427   5.998   7.640
  1158G11  C07P79624   1.303   6.024   7.700
  1158G11  C07T79625   1.223   5.914   7.730
  1158G11  C07U79626   1.104   5.934   7.798
  1158G11  C07V79627   1.023   5.819   7.823
  1158G11  C08479628   1.065   5.694   7.778
  1158G11  C08C79629   1.183   5.677   7.711
  1158G11  C08B79630   1.213   5.554   7.649
  1158G11  C08A79631   1.333   5.541   7.586
  1158G11  C08979632   1.424   5.644   7.564
  1158G11  C08879633   1.545   5.619   7.495
  1158G11  C08779634   1.620   5.729   7.466
  1158G11  C08679635   1.588   5.854   7.520
  1158G11  C08X79636   1.577   5.490   7.453
  1158G11  C08T79637   1.477   5.386   7.467
  1158G11  C08D79638   1.385   5.768   7.615
  1158G11  C08U79639   1.361   5.416   7.533
  1158G11  C08V79640   1.273   5.315   7.538
  1158G11  C0CY79641   1.156   5.328   7.608
  1158G11  C0CX79642   1.076   5.217   7.616
  1158G11  C0CW79643   0.958   5.227   7.685
  1158G11  C0CV79644   0.927   5.346   7.749
  1158G11  C0D479645   1.013   5.458   7.736
  1158G11  C0CU79646   0.809   5.355   7.819
  1158G11  C0CT79647   0.712   5.258   7.808
  1158G11  C0CS79648   0.741   5.147   7.734
  1158G11  C0D679649   0.790   5.478   7.879
  1158G11  C0EC79650   0.866   5.592   7.858
  1158G11  C07X79651   0.822   5.719   7.899
  1158G11  C0DL79652   0.663   5.493   7.934
  1158G11  C0DK79653   0.618   5.619   7.976
  1158G11  C0DN79654   0.489   5.604   8.009
  1158G11  C0D879655   0.565   5.394   7.947
  1158G11  C08W79656   1.326   5.206   7.482
  1158G11  C0CQ79657   1.243   5.085   7.487
  1158G11  C09379658   1.128   5.446   7.667
  1158G11  C09279659   0.986   5.580   7.793
  1158G11  C08579660   1.266   5.784   7.689
  1158G11  C07S79661   1.469   5.874   7.596
  1158G11  C06F79662   1.628   6.089   7.536
  1158G11  C07O79663   1.262   6.151   7.731
  1158G11  C07N79664   1.138   6.174   7.789
  1158G11  C05D79665   1.547   6.345   7.634
  1158G11  C05C79666   1.672   6.323   7.574
  1158G11  C05N79667   1.722   6.444   7.532
  1158G11  C05M79668   1.502   6.756   7.518
  1158G11  C05I79669   1.304   6.877   7.594
  1158G11  C06179670   1.175   7.124   7.614
  1158G11  C02Q79671   1.157   7.345   7.522
  1158G11  C02O79672   1.252   7.514   7.297
  1158G11  C03Q79673   1.424   7.209   7.380
  1158G11  C03O79674   1.586   7.117   7.229
  1158G11  C03L79675   1.755   7.256   6.952
  1158G11  C02S79676   1.470   7.448   7.101
  1158G11  C02T79677   1.544   7.626   6.903
  1158G11  C03K79678   1.786   7.345   6.837
  1158G11  C03I79679   1.588   7.718   6.813
  1158G11  C03G79680   1.678   7.915   6.631
  1158G11  H00D79681   1.707   7.984   6.553
  1158G11  C03J79682   1.868   7.542   6.641
  1158G11  C03W79683   2.059   7.491   6.440
  1158G11  C04I79684   2.068   7.266   6.499
  1158G11  C04K79685   2.175   7.011   6.513
  1158G11  C04N79686   2.225   6.881   6.526
  1158G11  C04X79687   2.232   6.667   6.647
  1158G11  C05079688   2.238   6.442   6.766
  1158G11  C05W79689   2.082   6.565   6.968
  1158G11  C05S79690   2.107   6.116   7.069
  1158G11  C05R79691   2.026   6.422   7.227
  1158G11  C05O79692   1.825   6.444   7.435
  1158G11  C05B79693   1.707   6.198   7.513
  1158G11  C05A79694   1.960   6.090   7.268
  1158G11  C07R79695   1.671   5.962   7.490
  1158G11  C08N79696   1.736   5.711   7.393
  1158G11  C08M79697   1.776   5.579   7.354
  1158G11  C08L79698   1.898   5.559   7.280
  1158G11  C09179699   2.019   6.024   7.153
  1158G11  C09K79700   2.087   5.760   6.933
  1158G11  H00M79701   2.063   5.820   6.847
  1158G11  C08K79702   1.959   5.674   7.226
  1158G11  C09J79703   2.128   5.621   6.926
  1158G11  C09I79704   2.129   5.513   6.836
  1158G11  C09L79705   2.163   5.505   6.697
  1158G11  H00N79706   2.183   5.589   6.631
  1158G11  C09Q79707   2.168   5.377   6.646
  1158G11  H00O79708   2.198   5.366   6.543
  1158G11  O00B79709   2.134   5.262   6.713
  1158G11  C09G79710   2.100   5.271   6.852
  1158G11  C09F79711   2.065   5.141   6.907
  1158G11  O00A79712   2.088   5.032   6.829
  1158G11  C09P79713   2.047   4.914   6.886
  1158G11  H00P79714   2.126   4.845   6.912
  1158G11  C09O79715   1.929   4.903   6.957
  1158G11  C09D79716   1.915   5.004   7.057
  1158G11  C09C79717   1.833   5.007   7.177
  1158G11  C09N79718   1.717   4.929   7.214
  1158G11  C09T79719   1.638   4.859   7.113
  1158G11  C09S79720   1.699   4.794   7.003
  1158G11  C0CP79721   1.608   4.696   6.971
  1158G11  C0CN79722   1.484   4.706   7.037
  1158G11  C0CO79723   1.383   4.622   6.990
  1158G11  H01479724   1.282   4.623   7.028
  1158G11  C0CZ79725   1.423   4.522   6.898
  1158G11  H01579726   1.346   4.452   6.869
  1158G11  C0D079727   1.554   4.508   6.841
  1158G11  C0G579728   1.589   4.411   6.750
  1158G11  H01F79729   1.518   4.340   6.711
  1158G11  C0G479730   1.705   4.404   6.688
  1158G11  H01G79731   1.722   4.326   6.615
  1158G11  O00H79732   1.802   4.500   6.712
  1158G11  C0D279733   1.773   4.598   6.803
  1158G11  C09V79734   1.860   4.704   6.840
  1158G11  H00Q79735   1.956   4.708   6.791
  1158G11  C0D179736   1.646   4.608   6.867
  1158G11  C09R79737   1.828   4.801   6.938
  1158G11  C09H79738   2.099   5.397   6.914
  1158G11  C09E79739   1.997   5.127   7.035
  1158G11  C09B79740   1.850   5.097   7.276
  1158G11  C08Z79741   1.939   5.422   7.251
  1158G11  C08O79742   1.702   5.464   7.396
  1158G11  C09A79743   1.752   5.087   7.377
  1158G11  C08S79744   1.453   5.250   7.435
  1158G11  C09979745   1.668   4.978   7.339
  1158G11  C09U79746   1.508   4.804   7.144
  1158G11  C0BO79747   1.124   4.641   7.357
  1158G11  C0CL79748   1.282   4.968   7.418
  1158G11  C0D379749   1.115   5.098   7.550
  1158G11  C0D579750   0.867   5.130   7.677
  1158G11  C0BR79751   0.961   4.782   7.463
  1158G11  C0BQ79752   0.996   4.662   7.407
  1158G11  C0BL79753   1.059   4.414   7.285
  1158G11  C0AF79754   0.864   4.234   7.249
  1158G11  C0BH79755   0.671   4.481   7.431
  1158G11  C0BG79756   0.557   4.490   7.505
  1158G11  C0BD79757   0.483   4.281   7.416
  1158G11  C0AG79758   0.760   4.146   7.225
  1158G11  C0AI79759   0.706   3.922   7.164
  1158G11  C0AV79760   0.558   3.698   7.202
  1158G11  C0BB79761   0.335   3.965   7.321
  1158G11  O00C79762   0.378   3.605   7.333
  1158G11  C0BC79763   0.221   3.939   7.386
  1158G11  C0B979764   0.383   4.177   7.406
  1158G11  O00E79765   0.163   4.266   7.679
  1158G11  C0CA79766   0.143   4.373   7.771
  1158G11  O00F79767   0.056   4.363   7.857
  1158G11  C0BF79768   0.465   4.382   7.502
  1158G11  C0C579769   0.229   4.483   7.757
  1158G11  C0C479770   0.198   4.597   7.836
  1158G11  H01179771   0.117   4.595   7.907
  1158G11  C0C879772   0.534   4.597   7.584
  1158G11  C0C279773   0.284   4.716   7.824
  1158G11  C0C379774   0.276   4.827   7.905
  1158G11  C0DY79775   0.177   4.843   8.008
  1158G11  H01679776   0.100   4.777   8.046
  1158G11  C0DX79777   0.207   4.973   8.058
  1158G11  C0DW79778   0.108   5.034   8.142
  1158G11  C0BY79779   0.598   4.821   7.657
  1158G11  C0DB79780   0.349   4.942   7.889
  1158G11  C0CC79781   0.650   5.045   7.732
  1158G11  C0D779782   0.594   5.269   7.879
  1158G11  C0DZ79783   0.307   5.043   7.976
  1158G11  C0DM79784   0.455   5.463   8.009
  1158G11  C0DQ79785   0.154   5.278   8.072
  1158G11  C0DV79786   0.075   5.166   8.119
  1158G11  C0E079787  -0.011   4.968   8.204
  1158G11  C0FO79788  -0.282   5.148   8.365
  1158G11  C0E379789  -0.034   4.906   8.337
  1158G11  H01779790   0.039   4.847   8.392
  1158G11  C0GV79791  -0.320   5.078   8.482
  1158G11  C0ES79792  -0.281   5.289   8.359
  1158G11  C0GQ79793  -0.468   5.343   8.676
  1158G11  C0FJ79794  -0.459   5.697   8.565
  1158G11  C0ED79795  -0.291   5.583   8.367
  1158G11  C0ER79796  -0.383   5.858   8.184
  1158G11  C0EP79797  -0.169   5.931   8.130
  1158G11  C0E679798  -0.077   5.560   8.204
  1158G11  C0DE79799   0.182   5.652   8.057
  1158G11  C0EA79800   0.065   6.026   8.078
  1158G11  C0DF79801   0.279   5.732   7.989
  1158G11  C08079802   0.405   6.070   8.026
  1158G11  C0DO79803   0.418   5.725   8.009
  1158G11  C0DJ79804   0.696   5.738   7.951
  1158G11  C07K79805   0.669   6.110   7.961
  1158G11  C07W79806   0.896   5.838   7.874
  1158G11  C08379807   1.056   6.064   7.822
  1158G11  C07J79808   0.752   6.222   7.931
  1158G11  C06O79809   0.906   6.446   7.872
  1158G11  C06M79810   1.089   6.303   7.806
  1168G11  C07179811   3.022   4.459  13.515
  1168G11  C07L79812   3.152   4.449  13.471
  1168G11  C07M79813   3.235   4.559  13.449
  1168G11  C07Y79814   3.366   4.542  13.401
  1168G11  C08179815   3.423   4.413  13.380
  1168G11  C08279816   3.556   4.414  13.327
  1168G11  C0DI79817   3.626   4.296  13.265
  1168G11  C0DH79818   3.599   4.156  13.257
  1168G11  C0DG79819   3.690   4.084  13.165
  1168G11  C0E979820   3.763   3.962  13.192
  1168G11  C0E879821   3.904   3.993  13.156
  1168G11  C0E779822   4.014   3.901  13.147
  1168G11  C0EB79823   4.008   3.759  13.187
  1168G11  C0EF79824   4.115   3.663  13.216
  1168G11  C0EE79825   4.235   3.685  13.275
  1168G11  C0FD79826   4.277   3.604  13.386
  1168G11  C0FE79827   4.200   3.504  13.453
  1168G11  H01B79828   4.098   3.484  13.423
  1168G11  C0FF79829   4.257   3.426  13.558
  1168G11  H01A79830   4.210   3.339  13.601
  1168G11  C0FG79831   4.388   3.451  13.598
  1168G11  H01879832   4.423   3.387  13.678
  1168G11  C0FH79833   4.461   3.560  13.539
  1168G11  C0FI79834   4.592   3.594  13.591
  1168G11  H01979835   4.637   3.530  13.665
  1168G11  O00K79836   4.658   3.703  13.554
  1168G11  C0FL79837   4.621   3.746  13.427
  1168G11  C0FK79838   4.496   3.720  13.364
  1168G11  C0FM79839   4.454   3.790  13.250
  1168G11  C0FN79840   4.554   3.865  13.182
  1168G11  C0FP79841   4.686   3.871  13.234
  1168G11  C0GO79842   4.776   3.952  13.171
  1168G11  C0GN79843   4.887   4.009  13.237
  1168G11  C0GR79844   4.916   3.954  13.365
  1168G11  C0GS79845   5.015   4.019  13.448
  1168G11  H01Q79846   5.033   3.985  13.549
  1168G11  C0GT79847   5.093   4.126  13.391
  1168G11  H01O79848   5.166   4.178  13.452
  1168G11  C0GU79849   5.063   4.165  13.263
  1168G11  H01P79850   5.132   4.244  13.237
  1168G11  O00L79851   4.840   3.850  13.415
  1168G11  C0GM79852   4.953   4.120  13.185
  1168G11  C0GL79853   4.913   4.171  13.060
  1168G11  H01R79854   4.956   4.262  13.019
  1168G11  C0GK79855   4.810   4.109  12.987
  1168G11  C0GP79856   4.725   4.138  12.875
  1168G11  C0E279857   4.618   4.045  12.854
  1168G11  C0E179858   4.505   4.118  12.805
  1168G11  C0DU79859   4.377   4.124  12.873
  1168G11  C0DT79860   4.317   4.036  12.963
  1168G11  C0E479861   4.384   3.937  13.033
  1168G11  C0E579862   4.286   3.874  13.115
  1168G11  C0DS79863   4.190   4.052  13.018
  1168G11  C0DR79864   4.138   4.185  13.007
  1168G11  C0DD79865   4.025   4.231  13.070
  1168G11  C0DC79866   4.031   4.376  13.054
  1168G11  C0DP79867   4.150   4.421  12.980
  1168G11  C0DA79868   4.199   4.563  12.956
  1168G11  C0D979869   4.137   4.698  12.995
  1168G11  C0CR79870   4.198   4.820  12.951
  1168G11  C0C079871   4.320   4.826  12.879
  1168G11  C0BZ79872   4.397   4.937  12.846
  1168G11  C0C179873   4.521   4.929  12.779
  1168G11  C0C779874   4.588   5.047  12.750
  1168G11  C0C679875   4.712   5.043  12.683
  1168G11  C0C979876   4.796   5.157  12.677
  1168G11  C0B879877   4.905   5.160  12.587
  1168G11  C0B779878   4.986   5.274  12.574
  1168G11  C0B679879   5.094   5.316  12.481
  1168G11  C0B579880   5.080   5.284  12.346
  1168G11  H00Z79881   5.011   5.205  12.321
  1168G11  C0B479882   5.162   5.378  12.275
  1168G11  H01079883   5.153   5.401  12.170
  1168G11  C0B379884   5.227   5.470  12.372
  1168G11  C0AP79885   5.245   5.615  12.391
  1168G11  C0AQ79886   5.197   5.633  12.526
  1168G11  C0AR79887   5.133   5.757  12.562
  1168G11  C0AS79888   5.047   5.741  12.663
  1168G11  C0AT79889   4.988   5.621  12.708
  1168G11  C0BA79890   5.028   5.503  12.653
  1168G11  C0AU79891   4.871   5.625  12.784
  1168G11  C0BE79892   4.796   5.507  12.794
  1168G11  C0BI79893   4.666   5.517  12.847
  1168G11  C0BJ79894   4.608   5.643  12.879
  1168G11  C0BK79895   4.482   5.647  12.926
  1168G11  C0BW79896   4.402   5.537  12.936
  1168G11  C0BV79897   4.457   5.413  12.898
  1168G11  C0BU79898   4.378   5.298  12.915
  1168G11  C0BX79899   4.423   5.172  12.873
  1168G11  C0BT79900   4.247   5.309  12.970
  1168G11  C0CD79901   4.174   5.195  12.995
  1168G11  C0CB79902   4.223   5.067  12.959
  1168G11  C0CE79903   4.043   5.203  13.046
  1168G11  C0CK79904   3.986   5.326  13.060
  1168G11  C0BS79905   4.058   5.442  13.036
  1168G11  C0CJ79906   3.997   5.567  13.054
  1168G11  C0BP79907   4.074   5.684  13.047
  1168G11  C0CI79908   4.023   5.813  13.055
  1168G11  C0CH79909   4.114   5.920  13.074
  1168G11  H01279910   4.068   6.014  13.100
  1168G11  C0BN79911   4.252   5.908  13.038
  1168G11  C0CG79912   4.330   6.024  13.031
  1168G11  C0CF79913   4.292   6.144  13.093
  1168G11  H01379914   4.199   6.156  13.146
  1168G11  O00G79915   4.365   6.265  13.086
  1168G11  C0AA79916   4.476   6.254  13.015
  1168G11  C0A979917   4.542   6.374  12.995
  1168G11  H00U79918   4.502   6.459  13.049
  1168G11  C0A879919   4.652   6.378  12.912
  1168G11  H00V79920   4.701   6.474  12.908
  1168G11  C0A779921   4.703   6.266  12.837
  1168G11  C0A679922   4.643   6.133  12.876
  1168G11  C0A579923   4.699   6.007  12.848
  1168G11  C0A479924   4.823   5.991  12.783
  1168G11  C0A379925   4.906   6.075  12.698
  1168G11  C0A279926   4.875   6.203  12.654
  1168G11  C0A179927   4.966   6.274  12.563
  1168G11  C0A079928   5.075   6.244  12.473
  1168G11  C09Z79929   5.140   6.353  12.411
  1168G11  C09Y79930   5.224   6.332  12.295
  1168G11  H00Y79931   5.271   6.413  12.241
  1168G11  C09X79932   5.228   6.202  12.243
  1168G11  C09W79933   5.285   6.180  12.121
  1168G11  H00R79934   5.321   6.269  12.072
  1168G11  C0AX79935   5.311   6.055  12.068
  1168G11  H00S79936   5.354   6.040  11.970
  1168G11  C0AW79937   5.285   5.941  12.150
  1168G11  H00T79938   5.313   5.846  12.109
  1168G11  C0AN79939   5.231   5.961  12.277
  1168G11  C0AO79940   5.209   5.853  12.362
  1168G11  C0AM79941   5.190   6.089  12.318
  1168G11  C0B279942   5.114   6.491  12.434
  1168G11  O00D79943   5.169   6.583  12.373
  1168G11  C0B179944   5.018   6.521  12.542
  1168G11  H00W79945   5.007   6.624  12.571
  1168G11  C0AL79946   5.115   6.111  12.438
  1168G11  C0AK79947   5.088   5.993  12.513
  1168G11  C0B079948   4.945   6.410  12.597
  1168G11  C0AZ79949   4.847   6.420  12.701
  1168G11  H00X79950   4.813   6.513  12.744
  1168G11  C0AJ79951   5.000   5.989  12.630
  1168G11  C0AH79952   4.880   5.864  12.779
  1168G11  C0AE79953   4.637   5.888  12.885
  1168G11  C0AD79954   4.506   5.896  12.938
  1168G11  C0AY79955   4.800   6.292  12.735
  1168G11  C0AB79956   4.527   6.135  12.961
  1168G11  C0AC79957   4.454   6.020  12.977
  1168G11  C0BM79958   4.297   5.784  13.003
  1168G11  C0CM79959   3.879   5.826  13.044
  1168G11  C09M79960   3.804   5.719  13.100
  1168G11  C09879961   3.685   5.762  13.169
  1168G11  C08R79962   3.576   5.689  13.234
  1168G11  C08Q79963   3.473   5.768  13.293
  1168G11  C08P79964   3.328   5.755  13.292
  1168G11  C08Y79965   3.245   5.870  13.282
  1168G11  C09779966   3.310   5.979  13.239
  1168G11  C09679967   3.230   6.038  13.150
  1168G11  C09079968   3.102   5.976  13.157
  1168G11  C09579969   2.984   6.022  13.096
  1168G11  C09479970   2.862   5.961  13.128
  1168G11  C08J79971   2.821   5.835  13.178
  1168G11  C08I79972   2.712   5.857  13.262
  1168G11  C08H79973   2.690   5.745  13.351
  1168G11  C08G79974   2.825   5.677  13.356
  1168G11  C08F79975   2.893   5.558  13.401
  1168G11  C08E79976   2.821   5.452  13.464
  1168G11  C05979977   2.682   5.460  13.517
  1168G11  C05879978   2.625   5.351  13.579
  1168G11  C05779979   2.495   5.344  13.621
  1168G11  C05679980   2.419   5.457  13.600
  1168G11  C05579981   2.473   5.583  13.576
  1168G11  C05479982   2.369   5.666  13.528
  1168G11  C05379983   2.242   5.592  13.537
  1168G11  C05279984   2.112   5.620  13.477
  1168G11  C05179985   2.096   5.742  13.394
  1168G11  C05U79986   2.201   5.823  13.334
  1168G11  C05T79987   2.341   5.818  13.331
  1168G11  C06K79988   2.382   5.922  13.239
  1168G11  H00J79989   2.476   5.932  13.187
  1168G11  C06L79990   2.276   5.993  13.190
  1168G11  H00I79991   2.275   6.079  13.124
  1168G11  C05V79992   2.162   5.938  13.257
  1168G11  C06J79993   2.032   5.972  13.235
  1168G11  H00K79994   1.999   6.059  13.181
  1168G11  C05X79995   1.923   5.896  13.288
  1168G11  C06I79996   1.789   5.919  13.262
  1168G11  H00L79997   1.755   6.003  13.204
  1168G11  C04Z79998   1.684   5.826  13.287
  1168G11  C06H79999   1.554   5.857  13.247
  1168G11  H00H80000   1.524   5.949  13.201
  1168G11  C04Y80001   1.453   5.761  13.274
  1168G11  C06G80002   1.318   5.792  13.246
  1168G11  O00980003   1.274   5.900  13.204
  1168G11  O00880004   1.220   5.697  13.276
  1168G11  C04P80005   1.249   5.568  13.319
  1168G11  C04J80006   1.161   5.460  13.333
  1168G11  C04Q80007   1.021   5.462  13.304
  1168G11  H00E80008   0.970   5.551  13.270
  1168G11  C04M80009   0.938   5.349  13.309
  1168G11  C04R80010   0.804   5.341  13.273
  1168G11  H00F80011   0.752   5.430  13.241
  1168G11  C04S80012   0.731   5.229  13.272
  1168G11  H00G80013   0.632   5.234  13.230
  1168G11  O00780014   0.785   5.108  13.311
  1168G11  C03V80015   0.915   5.111  13.352
  1168G11  C03U80016   0.972   4.985  13.390
  1168G11  O00680017   0.891   4.876  13.385
  1168G11  C03F80018   0.948   4.753  13.402
  1168G11  C03E80019   1.089   4.736  13.435
  1168G11  C03D80020   1.173   4.848  13.447
  1168G11  C03C80021   1.311   4.834  13.471
  1168G11  C03B80022   1.355   4.700  13.485
  1168G11  C03A80023   1.490   4.683  13.512
  1168G11  C03980024   1.582   4.795  13.524
  1168G11  C03880025   1.713   4.730  13.547
  1168G11  C03780026   1.681   4.596  13.552
  1168G11  C03680027   1.770   4.500  13.587
  1168G11  C02R80028   1.760   4.361  13.584
  1168G11  C03580029   1.892   4.321  13.621
  1168G11  C03R80030   1.974   4.430  13.648
  1168G11  C03S80031   2.113   4.428  13.628
  1168G11  C04980032   2.179   4.544  13.621
  1168G11  C04880033   2.098   4.663  13.617
  1168G11  C03P80034   1.950   4.667  13.602
  1168G11  C04780035   2.178   4.781  13.628
  1168G11  C04680036   2.131   4.909  13.624
  1168G11  C04580037   2.000   4.956  13.622
  1168G11  C03T80038   1.876   4.906  13.593
  1168G11  C04480039   1.775   5.010  13.587
  1168G11  C04380040   1.840   5.123  13.635
  1168G11  C04280041   1.774   5.238  13.584
  1168G11  C04180042   1.642   5.180  13.539
  1168G11  C04080043   1.540   5.247  13.474
  1168G11  C03Z80044   1.405   5.201  13.446
  1168G11  C04H80045   1.334   5.320  13.410
  1168G11  C04G80046   1.426   5.423  13.394
  1168G11  C03N80047   1.328   5.074  13.449
  1168G11  C03Y80048   1.191   5.090  13.423
  1168G11  C03X80049   1.130   5.214  13.389
  1168G11  C04F80050   1.550   5.386  13.435
  1168G11  C04E80051   1.650   5.485  13.434
  1168G11  C04O80052   1.615   5.614  13.374
  1168G11  C04D80053   1.777   5.473  13.487
  1168G11  C04V80054   1.872   5.575  13.461
  1168G11  C04W80055   1.854   5.691  13.380
  1168G11  C04C80056   1.838   5.370  13.565
  1168G11  C04L80057   1.977   5.410  13.580
  1168G11  C04U80058   2.081   5.319  13.606
  1168G11  C05Q80059   2.216   5.351  13.623
  1168G11  C05P80060   2.286   5.235  13.658
  1168G11  C04T80061   2.203   5.132  13.647
  1168G11  C04B80062   2.075   5.179  13.633
  1168G11  C03M80063   1.637   5.032  13.551
  1168G11  C04A80064   1.972   5.092  13.635
  1168G11  C05H80065   2.235   4.995  13.646
  1168G11  C05G80066   2.352   4.915  13.662
  1168G11  C05F80067   2.480   4.963  13.682
  1168G11  C05E80068   2.599   4.890  13.652
  1168G11  C05L80069   2.641   4.752  13.621
  1168G11  C05K80070   2.544   4.642  13.622
  1168G11  C05J80071   2.400   4.655  13.625
  1168G11  C06680072   2.608   4.512  13.611
  1168G11  C06580073   2.746   4.498  13.581
  1168G11  C06480074   2.831   4.605  13.577
  1168G11  C06N80075   2.801   4.371  13.563
  1168G11  C06980076   2.713   4.257  13.559
  1168G11  C06P80077   2.766   4.129  13.530
  1168G11  C06R80078   2.688   4.021  13.499
  1168G11  C06B80079   2.554   4.039  13.508
  1168G11  C06S80080   2.469   3.930  13.469
  1168G11  C02G80081   2.334   3.951  13.473
  1168G11  C02F80082   2.248   3.855  13.416
  1168G11  C02780083   2.300   3.735  13.369
  1168G11  C02680084   2.219   3.646  13.306
  1168G11  C00E80085   2.273   3.529  13.259
  1168G11  C00D80086   2.188   3.439  13.197
  1168G11  C00C80087   2.242   3.324  13.146
  1168G11  C00B80088   2.372   3.291  13.157
  1168G11  C01580089   2.458   3.382  13.213
  1168G11  C07F80090   2.593   3.358  13.210
  1168G11  C07E80091   2.673   3.452  13.269
  1168G11  C06W80092   2.624   3.569  13.330
  1168G11  C06V80093   2.486   3.592  13.326
  1168G11  C06X80094   2.710   3.664  13.376
  1168G11  C07B80095   2.847   3.649  13.362
  1168G11  C07C80096   2.897   3.532  13.311
  1168G11  C0FU80097   3.031   3.523  13.289
  1168G11  C0F780098   3.081   3.412  13.222
  1168G11  C0F680099   3.221   3.406  13.195
  1168G11  C0F880100   3.278   3.291  13.138
  1168G11  C0F980101   3.413   3.273  13.116
  1168G11  C0FA80102   3.468   3.154  13.070
  1168G11  C0FZ80103   3.381   3.056  13.038
  1168G11  C0G080104   3.430   2.942  12.978
  1168G11  C0GD80105   3.567   2.921  12.952
  1168G11  C0FC80106   3.655   3.027  12.981
  1168G11  C0GH80107   3.796   3.019  12.948
  1168G11  C0EY80108   3.877   3.125  12.986
  1168G11  C0EX80109   4.013   3.122  12.949
  1168G11  C0EW80110   4.098   3.218  13.001
  1168G11  C0FR80111   4.231   3.237  12.947
  1168G11  H01D80112   4.297   3.319  12.969
  1168G11  C0FS80113   4.264   3.160  12.835
  1168G11  H01C80114   4.356   3.166  12.778
  1168G11  C0GJ80115   4.185   3.046  12.806
  1168G11  H01N80116   4.214   2.986  12.721
  1168G11  C0EV80117   4.046   3.317  13.084
  1168G11  C0FT80118   4.131   3.414  13.143
  1168G11  H01E80119   4.238   3.400  13.142
  1168G11  C0EU80120   3.911   3.326  13.098
  1168G11  C0ET80121   3.850   3.444  13.147
  1168G11  C0EI80122   3.720   3.470  13.153
  1168G11  C0F180123   3.633   3.362  13.132
  1168G11  C0F080124   3.685   3.245  13.082
  1168G11  C0EH80125   3.669   3.595  13.186
  1168G11  C0EG80126   3.750   3.711  13.201
  1168G11  C0EJ80127   3.531   3.609  13.218
  1168G11  C0F380128   3.446   3.499  13.198
  1168G11  C0EK80129   3.473   3.729  13.259
  1168G11  C0EL80130   3.555   3.845  13.271
  1168G11  C0EM80131   3.480   3.958  13.331
  1168G11  C0EN80132   3.360   3.943  13.394
  1168G11  C07I80133   3.313   4.066  13.443
  1168G11  C07480134   3.174   4.080  13.464
  1168G11  C07380135   3.124   4.209  13.473
  1168G11  C07280136   2.988   4.225  13.508
  1168G11  C07580137   3.092   3.968  13.453
  1168G11  C07680138   3.146   3.845  13.411
  1168G11  C07880139   3.066   3.740  13.378
  1168G11  C07G80140   2.959   3.986  13.476
  1168G11  C07080141   2.875   3.879  13.451
  1168G11  C07Z80142   3.394   4.170  13.392
  1168G11  C07780143   3.276   3.835  13.376
  1168G11  C0EO80144   3.336   3.730  13.301
  1168G11  C0F480145   3.256   3.619  13.285
  1168G11  C0EQ80146   3.934   3.547  13.170
  1168G11  C0FQ80147   4.058   3.030  12.858
  1168G11  C0GI80148   3.975   2.923  12.827
  1168G11  H01L80149   4.010   2.845  12.760
  1168G11  C0EZ80150   3.824   3.229  13.055
  1168G11  C0GG80151   3.846   2.912  12.874
  1168G11  C0GF80152   3.758   2.802  12.856
  1168G11  H01M80153   3.792   2.716  12.801
  1168G11  C0GE80154   3.625   2.808  12.889
  1168G11  H01K80155   3.562   2.728  12.851
  1168G11  O00J80156   3.349   2.832  12.952
  1168G11  C0GA80157   3.214   2.846  12.966
  1168G11  C0G980158   3.136   2.739  12.926
  1168G11  H01H80159   3.168   2.648  12.878
  1168G11  C0G880160   2.992   2.746  12.944
  1168G11  C0G780161   2.904   2.641  12.905
  1168G11  H01I80162   2.938   2.553  12.853
  1168G11  O00I80163   2.768   2.643  12.929
  1168G11  C0G680164   2.714   2.759  12.981
  1168G11  H01J80165   2.607   2.746  12.991
  1168G11  C02D80166   2.796   2.870  13.023
  1168G11  C02C80167   2.739   2.987  13.076
  1168G11  C01780168   2.595   3.013  13.078
  1168G11  C01680169   2.549   3.139  13.118
  1168G11  O00180170   2.507   2.918  13.045
  1168G11  C01880171   2.369   2.937  13.044
  1168G11  C00980172   2.315   3.065  13.071
  1168G11  C00880173   2.181   3.106  13.064
  1168G11  C00780174   2.051   3.042  13.032
  1168G11  C00680175   2.035   2.910  12.995
  1168G11  C00580176   1.909   2.856  12.960
  1168G11  C00480177   1.771   2.915  12.964
  1168G11  C00380178   1.718   3.047  13.013
  1168G11  C00280179   1.577   3.076  13.011
  1168G11  C00P80180   1.532   3.199  13.056
  1168G11  C00O80181   1.392   3.222  13.076
  1168G11  C00N80182   1.344   3.345  13.126
  1168G11  C01080183   1.211   3.359  13.158
  1168G11  C01180184   1.161   3.469  13.225
  1168G11  C01Q80185   1.033   3.474  13.280
  1168G11  C01U80186   0.953   3.362  13.277
  1168G11  C01280187   1.002   3.250  13.206
  1168G11  H00080188   0.936   3.165  13.203
  1168G11  C01V80189   0.835   3.363  13.353
  1168G11  H00780190   0.775   3.274  13.361
  1168G11  O00580191   0.787   3.480  13.405
  1168G11  C01W80192   0.868   3.589  13.404
  1168G11  C03180193   0.827   3.692  13.488
  1168G11  C03280194   0.909   3.803  13.517
  1168G11  H00A80195   0.876   3.882  13.583
  1168G11  C03380196   1.037   3.798  13.456
  1168G11  H00B80197   1.105   3.877  13.485
  1168G11  C01O80198   1.078   3.703  13.358
  1168G11  C01N80199   1.194   3.710  13.286
  1168G11  C01M80200   1.282   3.828  13.298
  1168G11  C01L80201   1.300   3.971  13.353
  1168G11  C01K80202   1.441   3.985  13.361
  1168G11  C01Y80203   1.518   4.087  13.418
  1168G11  C02I80204   1.449   4.202  13.444
  1168G11  C02N80205   1.533   4.308  13.488
  1168G11  C02M80206   1.476   4.434  13.494
  1168G11  C02L80207   1.342   4.454  13.469
  1168G11  C02K80208   1.258   4.342  13.440
  1168G11  C02U80209   1.118   4.369  13.428
  1168G11  C02V80210   1.060   4.496  13.427
  1168G11  C03H80211   0.925   4.518  13.391
  1168G11  H00C80212   0.864   4.439  13.349
  1168G11  C02W80213   1.039   4.258  13.421
  1168G11  C02X80214   1.097   4.140  13.380
  1168G11  C02Y80215   0.988   4.064  13.335
  1168G11  H00880216   0.986   3.972  13.279
  1168G11  C02Z80217   0.870   4.132  13.391
  1168G11  O00480218   0.755   4.090  13.417
  1168G11  O00380219   0.909   4.247  13.430
  1168G11  C02J80220   1.312   4.212  13.422
  1168G11  C01Z80221   1.651   4.056  13.441
  1168G11  C02080222   1.713   3.942  13.386
  1168G11  C01I80223   1.638   3.856  13.319
  1168G11  C01H80224   1.684   3.747  13.254
  1168G11  C00K80225   1.599   3.658  13.189
  1168G11  C01S80226   1.466   3.674  13.195
  1168G11  C01480227   1.375   3.570  13.183
  1168G11  C00J80228   1.647   3.536  13.148
  1168G11  C00I80229   1.783   3.515  13.150
  1168G11  C00H80230   1.865   3.608  13.210
  1168G11  C00G80231   2.002   3.584  13.225
  1168G11  C00S80232   1.832   3.390  13.113
  1168G11  C00T80233   1.967   3.376  13.121
  1168G11  C00U80234   2.018   3.257  13.080
  1168G11  C00R80235   1.751   3.284  13.072
  1168G11  C00L80236   1.558   3.434  13.114
  1168G11  C02880237   1.816   3.719  13.269
  1168G11  C02380238   1.895   3.800  13.344
  1168G11  C02480239   2.035   3.783  13.352
  1168G11  C02180240   1.841   3.913  13.403
  1168G11  C02280241   1.923   4.002  13.464
  1168G11  C02H80242   2.057   3.989  13.465
  1168G11  C03080243   2.141   4.082  13.523
  1168G11  C03480244   2.089   4.202  13.565
  1168G11  C02P80245   1.863   4.119  13.517
  1168G11  C02B80246   1.727   4.146  13.500
  1168G11  C01J80247   1.504   3.875  13.314
  1168G11  C01X80248   1.228   4.097  13.385
  1168G11  C01T80249   1.416   3.789  13.256
  1168G11  H00980250   0.724   3.699  13.520
  1168G11  C01P80251   0.994   3.593  13.343
  1168G11  C01R80252   1.241   3.588  13.229
  1168G11  C00Z80253   1.129   3.244  13.147
  1168G11  O00080254   1.158   3.132  13.075
  1168G11  C00M80255   1.422   3.451  13.133
  1168G11  C00Y80256   1.295   3.122  13.048
  1168G11  C01380257   1.349   3.005  12.985
  1168G11  H00180258   1.277   2.935  12.945
  1168G11  C00Q80259   1.615   3.307  13.081
  1168G11  C00180260   1.485   2.980  12.962
  1168G11  C00080261   1.538   2.858  12.901
  1168G11  H00680262   1.469   2.789  12.855
  1168G11  C00W80263   1.800   3.154  13.043
  1168G11  C01G80264   1.671   2.833  12.905
  1168G11  H00580265   1.702   2.736  12.869
  1168G11  C01C80266   1.941   2.720  12.921
  1168G11  H00280267   1.885   2.634  12.888
  1168G11  C01B80268   2.083   2.694  12.937
  1168G11  C01D80269   2.162   2.582  12.928
  1168G11  H00380270   2.117   2.494  12.885
  1168G11  C01E80271   2.295   2.596  12.949
  1168G11  H00480272   2.357   2.513  12.919
  1168G11  O00280273   2.357   2.713  12.990
  1168G11  C01A80274   2.142   2.817  12.976
  1168G11  C00V80275   1.946   3.144  13.041
  1168G11  C01980276   2.283   2.831  13.000
  1168G11  C02E80277   2.826   3.089  13.118
  1168G11  C0FX80278   2.966   3.082  13.099
  1168G11  C0FW80279   3.048   3.192  13.127
  1168G11  C0GB80280   3.024   2.968  13.046
  1168G11  C0G380281   2.772   3.211  13.169
  1168G11  C07H80282   2.857   3.313  13.207
  1168G11  C0GC80283   2.941   2.861  13.011
  1168G11  C0G280284   3.162   2.963  13.026
  1168G11  C0G180285   3.246   3.071  13.058
  1168G11  C0FB80286   3.604   3.143  13.045
  1168G11  C0F280287   3.497   3.380  13.145
  1168G11  C0FY80288   3.189   3.185  13.109
  1168G11  C0F580289   3.311   3.507  13.229
  1168G11  C0FV80290   2.994   3.306  13.184
  1168G11  C07980291   3.120   3.625  13.319
  1168G11  C07A80292   2.930   3.754  13.403
  1168G11  C06Y80293   2.662   3.790  13.417
  1168G11  C07D80294   2.809   3.430  13.266
  1168G11  C01F80295   2.638   3.236  13.165
  1168G11  C00A80296   2.413   3.163  13.113
  1168G11  C00X80297   2.152   3.234  13.090
  1168G11  C00F80298   2.048   3.465  13.184
  1168G11  C02980299   2.406   3.497  13.267
  1168G11  C02580300   2.086   3.671  13.291
  1168G11  C06U80301   2.442   3.711  13.370
  1168G11  C02A80302   2.114   3.875  13.416
  1168G11  C05Y80303   2.281   4.072  13.522
  1168G11  C05Z80304   2.359   4.185  13.539
  1168G11  C06080305   2.304   4.305  13.583
  1168G11  C06280306   2.384   4.417  13.602
  1168G11  C06T80307   2.525   3.806  13.420
  1168G11  C06A80308   2.494   4.166  13.540
  1168G11  C06Z80309   2.740   3.898  13.454
  1168G11  C06Q80310   2.908   4.113  13.512
  1168G11  C06880311   2.577   4.274  13.568
  1168G11  C06780312   2.527   4.403  13.595
  1168G11  C06380313   2.778   4.734  13.590
  1168G11  C06C80314   2.864   4.845  13.571
  1168G11  C06D80315   2.818   4.974  13.582
  1168G11  C06E80316   2.884   5.087  13.538
  1168G11  C07Q80317   3.013   5.072  13.499
  1168G11  C07P80318   3.068   4.943  13.498
  1168G11  C07T80319   3.200   4.925  13.449
  1168G11  C07U80320   3.257   4.796  13.435
  1168G11  C07V80321   3.384   4.784  13.384
  1168G11  C08480322   3.459   4.897  13.339
  1168G11  C08C80323   3.399   5.018  13.350
  1168G11  C08B80324   3.460   5.127  13.294
  1168G11  C08A80325   3.397   5.243  13.298
  1168G11  C08980326   3.272   5.268  13.345
  1168G11  C08880327   3.225   5.399  13.350
  1168G11  C08780328   3.092   5.418  13.387
  1168G11  C08680329   3.019   5.309  13.442
  1168G11  C08X80330   3.302   5.510  13.310
  1168G11  C08T80331   3.439   5.483  13.260
  1168G11  C08D80332   3.205   5.160  13.399
  1168G11  C08U80333   3.475   5.353  13.250
  1168G11  C08V80334   3.599   5.344  13.192
  1168G11  C0CY80335   3.655   5.224  13.187
  1168G11  C0CX80336   3.779   5.222  13.126
  1168G11  C0CW80337   3.840   5.096  13.120
  1168G11  C0CV80338   3.777   4.982  13.172
  1168G11  C0D480339   3.651   4.993  13.234
  1168G11  C0CU80340   3.838   4.859  13.162
  1168G11  C0CT80341   3.963   4.844  13.102
  1168G11  C0CS80342   4.027   4.958  13.053
  1168G11  C0D680343   3.767   4.758  13.214
  1168G11  C0EC80344   3.636   4.762  13.274
  1168G11  C07X80345   3.569   4.650  13.315
  1168G11  C0DL80346   3.825   4.634  13.201
  1168G11  C0DK80347   3.749   4.525  13.238
  1168G11  C0DN80348   3.817   4.421  13.185
  1168G11  C0D880349   3.946   4.604  13.129
  1168G11  C08W80350   3.650   5.469  13.158
  1168G11  C0CQ80351   3.791   5.468  13.113
  1168G11  C09380352   3.588   5.115  13.240
  1168G11  C09280353   3.581   4.886  13.278
  1168G11  C08580354   3.269   5.035  13.401
  1168G11  C07S80355   3.079   5.182  13.454
  1168G11  C06F80356   2.825   5.216  13.535
  1168G11  C07O80357   2.998   4.829  13.537
  1168G11  C07N80358   3.052   4.699  13.518
  1168G11  C05D80359   2.691   4.995  13.629
  1168G11  C05C80360   2.641   5.118  13.650
  1168G11  C05N80361   2.506   5.107  13.671
  1168G11  C05M80362   2.320   4.778  13.645
  1168G11  C05I80363   2.319   4.542  13.618
  1168G11  C06180364   2.167   4.308  13.596
  1168G11  C02Q80365   1.951   4.208  13.567
  1168G11  C02O80366   1.668   4.273  13.521
  1168G11  C03Q80367   1.899   4.539  13.616
  1168G11  C03O80368   1.851   4.773  13.582
  1168G11  C03L80369   1.536   4.931  13.519
  1168G11  C02S80370   1.554   4.557  13.514
  1168G11  C02T80371   1.280   4.584  13.464
  1168G11  C03K80372   1.391   4.949  13.477
  1168G11  C03I80373   1.143   4.606  13.443
  1168G11  C03G80374   0.871   4.643  13.376
  1168G11  H00D80375   0.774   4.645  13.328
  1168G11  C03J80376   1.113   4.973  13.426
  1168G11  C03W80377   0.995   5.226  13.352
  1168G11  C04I80378   1.202   5.332  13.379
  1168G11  C04K80379   1.381   5.541  13.347
  1168G11  C04N80380   1.482   5.638  13.332
  1168G11  C04X80381   1.719   5.710  13.350
  1168G11  C05080382   1.961   5.776  13.355
  1168G11  C05W80383   1.998   5.535  13.509
  1168G11  C05S80384   2.424   5.736  13.417
  1168G11  C05R80385   2.281   5.472  13.602
  1168G11  C05O80386   2.426   5.227  13.660
  1168G11  C05B80387   2.699   5.233  13.583
  1168G11  C05A80388   2.593   5.579  13.501
  1168G11  C07R80389   2.888   5.327  13.482
  1168G11  C08N80390   3.028   5.542  13.361
  1168G11  C08M80391   3.106   5.644  13.313
  1168G11  C08L80392   3.037   5.754  13.264
  1168G11  C09180393   2.570   5.692  13.415
  1168G11  C09K80394   2.683   6.004  13.265
  1168G11  H00M80395   2.627   6.045  13.349
  1168G11  C08K80396   2.898   5.745  13.256
  1168G11  C09J80397   2.766   6.064  13.165
  1168G11  C09I80398   2.830   6.188  13.125
  1168G11  C09L80399   2.784   6.328  13.120
  1168G11  H00N80400   2.688   6.345  13.166
  1168G11  C09Q80401   2.872   6.412  13.062
  1168G11  H00O80402   2.838   6.514  13.054
  1168G11  O00B80403   2.987   6.382  12.997
  1168G11  C09G80404   3.043   6.255  13.028
  1168G11  C09F80405   3.187   6.237  12.999
  1168G11  O00A80406   3.241   6.333  12.915
  1168G11  C09P80407   3.360   6.299  12.854
  1168G11  H00P80408   3.365   6.318  12.748
  1168G11  C09O80409   3.460   6.217  12.917
  1168G11  C09D80410   3.410   6.138  13.025
  1168G11  C09C80411   3.490   6.053  13.114
  1168G11  C09N80412   3.627   6.003  13.102
  1168G11  C09T80413   3.699   6.007  12.979
  1168G11  C09S80414   3.687   6.122  12.898
  1168G11  C0CP80415   3.814   6.126  12.839
  1168G11  C0CN80416   3.907   6.022  12.878
  1168G11  C0CO80417   4.036   6.018  12.817
  1168G11  H01480418   4.110   5.939  12.820
  1168G11  C0CZ80419   4.076   6.129  12.740
  1168G11  H01580420   4.177   6.137  12.705
  1168G11  C0D080421   3.979   6.236  12.706
  1168G11  C0G580422   4.006   6.342  12.619
  1168G11  H01F80423   4.103   6.347  12.572
  1168G11  C0G480424   3.910   6.433  12.588
  1168G11  H01G80425   3.930   6.516  12.521
  1168G11  O00H80426   3.784   6.431  12.628
  1168G11  C0D280427   3.752   6.332  12.719
  1168G11  C09V80428   3.630   6.332  12.787
  1168G11  H00Q80429   3.565   6.417  12.773
  1168G11  C0D180430   3.843   6.228  12.748
  1168G11  C09R80431   3.592   6.222  12.869
  1168G11  C09H80432   2.960   6.158  13.076
  1168G11  C09E80433   3.276   6.144  13.059
  1168G11  C09B80434   3.446   5.990  13.225
  1168G11  C08Z80435   3.117   5.863  13.227
  1168G11  C08O80436   3.247   5.638  13.308
  1168G11  C09A80437   3.529   5.895  13.284
  1168G11  C08S80438   3.552   5.557  13.206
  1168G11  C09980439   3.649   5.898  13.202
  1168G11  C09U80440   3.830   5.941  12.975
  1168G11  C0BO80441   4.211   5.671  13.012
  1168G11  C0CL80442   3.863   5.584  13.088
  1168G11  C0D380443   3.852   5.339  13.096
  1168G11  C0D580444   3.970   5.083  13.075
  1168G11  C0BR80445   4.192   5.432  13.005
  1168G11  C0BQ80446   4.269   5.547  12.978
  1168G11  C0BL80447   4.429   5.775  12.960
  1168G11  C0AF80448   4.687   5.757  12.866
  1168G11  C0BH80449   4.587   5.403  12.845
  1168G11  C0BG80450   4.625   5.280  12.794
  1168G11  C0BD80451   4.839   5.386  12.732
  1168G11  C0AG80452   4.814   5.747  12.822
  1168G11  C0AI80453   4.982   5.860  12.693
  1168G11  C0AV80454   5.146   5.873  12.483
  1168G11  C0BB80455   5.147   5.511  12.575
  1168G11  O00C80456   5.238   5.726  12.307
  1168G11  C0BC80457   5.198   5.412  12.498
  1168G11  C0B980458   4.956   5.385  12.658
  1168G11  O00E80459   4.935   5.043  12.519
  1168G11  C0CA80460   4.866   4.925  12.534
  1168G11  O00F80461   4.913   4.820  12.487
  1168G11  C0BF80462   4.754   5.276  12.738
  1168G11  C0C580463   4.753   4.925  12.620
  1168G11  C0C480464   4.687   4.802  12.653
  1168G11  H01180465   4.713   4.709  12.605
  1168G11  C0C880466   4.541   5.167  12.803
  1168G11  C0C280467   4.575   4.809  12.740
  1168G11  C0C380468   4.499   4.696  12.783
  1168G11  C0DY80469   4.530   4.558  12.770
  1168G11  H01680470   4.616   4.516  12.720
  1168G11  C0DX80471   4.422   4.483  12.825
  1168G11  C0DW80472   4.429   4.339  12.823
  1168G11  C0BY80473   4.349   5.058  12.893
  1168G11  C0DB80474   4.375   4.701  12.848
  1168G11  C0CC80475   4.147   4.947  12.985
  1168G11  C0D780476   4.024   4.718  13.076
  1168G11  C0DZ80477   4.321   4.575  12.881
  1168G11  C0DM80478   3.937   4.463  13.114
  1168G11  C0DQ80479   4.210   4.294  12.942
  1168G11  C0DV80480   4.326   4.257  12.875
  1168G11  C0E080481   4.540   4.256  12.789
  1168G11  C0FO80482   4.629   3.975  12.977
  1168G11  C0E380483   4.682   4.269  12.822
  1168G11  H01780484   4.731   4.363  12.844
  1168G11  C0GV80485   4.748   3.993  13.041
  1168G11  C0ES80486   4.523   3.914  13.052
  1168G11  C0GQ80487   4.719   3.824  13.360
  1168G11  C0FJ80488   4.410   3.628  13.428
  1168G11  C0ED80489   4.317   3.776  13.207
  1168G11  C0ER80490   4.070   3.533  13.180
  1168G11  C0EP80491   3.893   3.678  13.192
  1168G11  C0E680492   4.152   3.937  13.094
  1168G11  C0DE80493   3.912   4.137  13.121
  1168G11  C0EA80494   3.696   3.837  13.226
  1168G11  C0DF80495   3.783   4.182  13.124
  1168G11  C08080496   3.508   4.100  13.339
  1168G11  C0DO80497   3.751   4.301  13.194
  1168G11  C0DJ80498   3.621   4.528  13.300
  1168G11  C07K80499   3.343   4.306  13.407
  1168G11  C07W80500   3.439   4.661  13.361
  1168G11  C08380501   3.181   4.683  13.475
  1168G11  C07J80502   3.209   4.320  13.449
  1168G11  C06O80503   2.936   4.350  13.528
  1168G11  C06M80504   2.968   4.587  13.543
  1178G11  C07180505   5.347   5.840   6.354
  1178G11  C07L80506   5.408   5.954   6.306
  1178G11  C07M80507   5.535   5.952   6.244
  1178G11  C07Y80508   5.605   6.068   6.213
  1178G11  C08180509   5.548   6.201   6.232
  1178G11  C08280510   5.623   6.313   6.190
  1178G11  C0DI80511   5.582   6.456   6.179
  1178G11  C0DH80512   5.473   6.524   6.242
  1178G11  C0DG80513   5.482   6.667   6.212
  1178G11  C0E980514   5.472   6.776   6.299
  1178G11  C0E880515   5.562   6.876   6.231
  1178G11  C0E780516   5.554   7.022   6.238
  1178G11  C0EB80517   5.463   7.087   6.325
  1178G11  C0EF80518   5.432   7.231   6.333
  1178G11  C0EE80519   5.412   7.333   6.231
  1178G11  C0FD80520   5.308   7.423   6.241
  1178G11  C0FE80521   5.189   7.408   6.320
  1178G11  H01B80522   5.164   7.315   6.368
  1178G11  C0FF80523   5.098   7.512   6.331
  1178G11  H01A80524   5.013   7.501   6.397
  1178G11  C0FG80525   5.114   7.626   6.256
  1178G11  H01880526   5.035   7.700   6.264
  1178G11  C0FH80527   5.223   7.640   6.172
  1178G11  C0FI80528   5.246   7.757   6.096
  1178G11  H01980529   5.171   7.835   6.102
  1178G11  O00K80530   5.348   7.773   6.007
  1178G11  C0FL80531   5.446   7.685   6.018
  1178G11  C0FK80532   5.436   7.564   6.096
  1178G11  C0FM80533   5.542   7.473   6.091
  1178G11  C0FN80534   5.664   7.515   6.036
  1178G11  C0FP80535   5.674   7.635   5.963
  1178G11  C0GO80536   5.790   7.667   5.896
  1178G11  C0GN80537   5.797   7.768   5.801
  1178G11  C0GR80538   5.681   7.858   5.790
  1178G11  C0GS80539   5.688   7.978   5.714
  1178G11  H01Q80540   5.601   8.041   5.697
  1178G11  C0GT80541   5.804   7.991   5.640
  1178G11  H01O80542   5.809   8.084   5.587
  1178G11  C0GU80543   5.914   7.900   5.646
  1178G11  H01P80544   6.003   7.931   5.593
  1178G11  O00L80545   5.561   7.828   5.857
  1178G11  C0GM80546   5.918   7.787   5.733
  1178G11  C0GL80547   6.030   7.700   5.757
  1178G11  H01R80548   6.121   7.709   5.699
  1178G11  C0GK80549   6.022   7.607   5.863
  1178G11  C0GP80550   6.103   7.497   5.921
  1178G11  C0E280551   6.039   7.455   6.039
  1178G11  C0E180552   6.071   7.318   6.061
  1178G11  C0DU80553   5.978   7.209   6.068
  1178G11  C0DT80554   5.843   7.214   6.102
  1178G11  C0E480555   5.759   7.316   6.106
  1178G11  C0E580556   5.634   7.258   6.135
  1178G11  C0DS80557   5.772   7.092   6.114
  1178G11  C0DR80558   5.843   6.971   6.092
  1178G11  C0DD80559   5.800   6.842   6.111
  1178G11  C0DC80560   5.911   6.756   6.064
  1178G11  C0DP80561   6.024   6.833   6.020
  1178G11  C0DA80562   6.156   6.783   5.974
  1178G11  C0D980563   6.215   6.648   5.968
  1178G11  C0CR80564   6.352   6.630   5.935
  1178G11  C0C080565   6.436   6.728   5.904
  1178G11  C0BZ80566   6.572   6.722   5.873
  1178G11  C0C180567   6.652   6.836   5.845
  1178G11  C0C780568   6.790   6.822   5.828
  1178G11  C0C680569   6.867   6.931   5.801
  1178G11  C0C980570   7.005   6.924   5.810
  1178G11  C0B880571   7.082   7.040   5.794
  1178G11  C0B780572   7.220   7.049   5.823
  1178G11  C0B680573   7.308   7.163   5.843
  1178G11  C0B580574   7.256   7.273   5.909
  1178G11  H00Z80575   7.150   7.295   5.916
  1178G11  C0B480576   7.363   7.322   5.998
  1178G11  H01080577   7.367   7.392   6.080
  1178G11  C0B380578   7.483   7.250   5.967
  1178G11  C0AP80579   7.579   7.182   6.058
  1178G11  C0AQ80580   7.585   7.052   6.009
  1178G11  C0AR80581   7.607   6.939   6.098
  1178G11  C0AS80582   7.558   6.825   6.050
  1178G11  C0AT80583   7.463   6.806   5.951
  1178G11  C0BA80584   7.416   6.917   5.884
  1178G11  C0AU80585   7.389   6.689   5.952
  1178G11  C0BE80586   7.261   6.684   5.901
  1178G11  C0BI80587   7.182   6.571   5.919
  1178G11  C0BJ80588   7.234   6.461   5.985
  1178G11  C0BK80589   7.158   6.345   5.998
  1178G11  C0BW80590   7.027   6.342   5.946
  1178G11  C0BV80591   6.966   6.457   5.909
  1178G11  C0BU80592   6.831   6.468   5.887
  1178G11  C0BX80593   6.771   6.586   5.854
  1178G11  C0BT80594   6.754   6.353   5.904
  1178G11  C0CD80595   6.616   6.362   5.907
  1178G11  C0CB80596   6.554   6.488   5.903
  1178G11  C0CE80597   6.541   6.247   5.921
  1178G11  C0CK80598   6.605   6.118   5.928
  1178G11  C0BS80599   6.747   6.110   5.929
  1178G11  C0CJ80600   6.815   5.985   5.948
  1178G11  C0BP80601   6.944   5.990   5.996
  1178G11  C0CI80602   7.003   5.878   6.051
  1178G11  C0CH80603   7.090   5.906   6.156
  1178G11  H01280604   7.118   5.818   6.211
  1178G11  C0BN80605   7.153   6.033   6.171
  1178G11  C0CG80606   7.255   6.049   6.264
  1178G11  C0CF80607   7.280   5.957   6.375
  1178G11  H01380608   7.220   5.872   6.404
  1178G11  O00G80609   7.384   5.976   6.459
  1178G11  C0AA80610   7.454   6.087   6.453
  1178G11  C0A980611   7.547   6.106   6.552
  1178G11  H00U80612   7.547   6.036   6.634
  1178G11  C0A880613   7.627   6.221   6.551
  1178G11  H00V80614   7.692   6.232   6.636
  1178G11  C0A780615   7.624   6.312   6.445
  1178G11  C0A680616   7.527   6.295   6.338
  1178G11  C0A580617   7.502   6.385   6.232
  1178G11  C0A480618   7.579   6.506   6.215
  1178G11  C0A380619   7.663   6.588   6.300
  1178G11  C0A280620   7.698   6.561   6.435
  1178G11  C0A180621   7.808   6.639   6.492
  1178G11  C0A080622   7.850   6.778   6.492
  1178G11  C09Z80623   7.947   6.814   6.586
  1178G11  C09Y80624   7.959   6.944   6.636
  1178G11  H00Y80625   8.025   6.973   6.717
  1178G11  C09X80626   7.879   7.042   6.566
  1178G11  C09W80627   7.882   7.177   6.613
  1178G11  H00R80628   7.944   7.202   6.698
  1178G11  C0AX80629   7.803   7.277   6.564
  1178G11  H00S80630   7.799   7.371   6.617
  1178G11  C0AW80631   7.731   7.252   6.448
  1178G11  H00T80632   7.672   7.324   6.395
  1178G11  C0AN80633   7.725   7.122   6.387
  1178G11  C0AO80634   7.667   7.099   6.264
  1178G11  C0AM80635   7.796   7.013   6.457
  1178G11  C0B280636   8.045   6.717   6.635
  1178G11  O00D80637   8.160   6.743   6.676
  1178G11  C0B180638   8.007   6.576   6.626
  1178G11  H00W80639   8.063   6.498   6.676
  1178G11  C0AL80640   7.781   6.878   6.421
  1178G11  C0AK80641   7.703   6.855   6.304
  1178G11  C0B080642   7.885   6.547   6.567
  1178G11  C0AZ80643   7.824   6.417   6.559
  1178G11  H00X80644   7.891   6.340   6.595
  1178G11  C0AJ80645   7.672   6.721   6.246
  1178G11  C0AH80646   7.546   6.587   6.106
  1178G11  C0AE80647   7.392   6.366   6.137
  1178G11  C0AD80648   7.316   6.253   6.152
  1178G11  C0AY80649   7.705   6.425   6.477
  1178G11  C0AB80650   7.440   6.185   6.346
  1178G11  C0AC80651   7.335   6.164   6.256
  1178G11  C0BM80652   7.126   6.124   6.076
  1178G11  C0CM80653   6.960   5.752   6.002
  1178G11  C09M80654   6.820   5.742   5.965
  1178G11  C09880655   6.765   5.612   5.933
  1178G11  C08R80656   6.633   5.558   5.939
  1178G11  C08Q80657   6.618   5.415   5.929
  1178G11  C08P80658   6.529   5.310   5.974
  1178G11  C08Y80659   6.592   5.181   5.983
  1178G11  C09780660   6.733   5.172   5.977
  1178G11  C09680661   6.776   5.087   6.072
  1178G11  C09080662   6.662   5.007   6.098
  1178G11  C09580663   6.661   4.890   6.177
  1178G11  C09480664   6.545   4.810   6.198
  1178G11  C08J80665   6.411   4.839   6.173
  1178G11  C08I80666   6.335   4.776   6.272
  1178G11  C08H80667   6.208   4.841   6.295
  1178G11  C08G80668   6.218   4.969   6.217
  1178G11  C08F80669   6.140   5.088   6.180
  1178G11  C08E80670   6.000   5.090   6.205
  1178G11  C05980671   5.919   4.982   6.254
  1178G11  C05880672   5.782   4.992   6.273
  1178G11  C05780673   5.695   4.890   6.313
  1178G11  C05680674   5.751   4.763   6.319
  1178G11  C05580675   5.875   4.731   6.275
  1178G11  C05480676   5.917   4.616   6.345
  1178G11  C05380677   5.812   4.572   6.437
  1178G11  C05280678   5.813   4.472   6.542
  1178G11  C05180679   5.938   4.407   6.579
  1178G11  C05U80680   6.071   4.431   6.521
  1178G11  C05T80681   6.130   4.527   6.429
  1178G11  C06K80682   6.255   4.478   6.395
  1178G11  H00J80683   6.308   4.524   6.313
  1178G11  C06L80684   6.295   4.380   6.489
  1178G11  H00I80685   6.397   4.343   6.490
  1178G11  C05V80686   6.174   4.342   6.557
  1178G11  C06J80687   6.164   4.236   6.646
  1178G11  H00K80688   6.248   4.173   6.666
  1178G11  C05X80689   6.044   4.223   6.718
  1178G11  C06I80690   6.029   4.131   6.825
  1178G11  H00L80691   6.116   4.067   6.835
  1178G11  C04Z80692   5.909   4.115   6.890
  1178G11  C06H80693   5.907   4.019   6.994
  1178G11  H00H80694   5.994   3.962   7.023
  1178G11  C04Y80695   5.786   4.009   7.073
  1178G11  C06G80696   5.784   3.927   7.190
  1178G11  O00980697   5.880   3.877   7.247
  1178G11  O00880698   5.664   3.914   7.254
  1178G11  C04P80699   5.546   3.978   7.216
  1178G11  C04J80700   5.425   3.982   7.300
  1178G11  C04Q80701   5.398   3.916   7.422
  1178G11  H00E80702   5.474   3.854   7.466
  1178G11  C04M80703   5.292   3.942   7.509
  1178G11  C04R80704   5.270   3.894   7.645
  1178G11  H00F80705   5.354   3.835   7.680
  1178G11  C04S80706   5.166   3.938   7.722
  1178G11  H00G80707   5.157   3.917   7.827
  1178G11  O00780708   5.066   4.015   7.665
  1178G11  C03V80709   5.087   4.067   7.542
  1178G11  C03U80710   5.001   4.166   7.500
  1178G11  O00680711   4.891   4.173   7.577
  1178G11  C03F80712   4.799   4.271   7.558
  1178G11  C03E80713   4.815   4.355   7.439
  1178G11  C03D80714   4.924   4.334   7.349
  1178G11  C03C80715   4.945   4.424   7.244
  1178G11  C03B80716   4.850   4.528   7.238
  1178G11  C03A80717   4.874   4.619   7.139
  1178G11  C03980718   4.977   4.603   7.034
  1178G11  C03880719   4.952   4.726   6.953
  1178G11  C03780720   4.840   4.786   7.006
  1178G11  C03680721   4.777   4.886   6.942
  1178G11  C02R80722   4.679   4.970   6.986
  1178G11  C03580723   4.676   5.083   6.889
  1178G11  C03R80724   4.772   5.067   6.792
  1178G11  C03S80725   4.850   5.180   6.751
  1178G11  C04980726   4.965   5.150   6.683
  1178G11  C04880727   5.016   5.018   6.701
  1178G11  C03P80728   4.960   4.916   6.785
  1178G11  C04780729   5.136   4.998   6.622
  1178G11  C04680730   5.206   4.879   6.608
  1178G11  C04580731   5.188   4.755   6.665
  1178G11  C03T80732   5.105   4.712   6.769
  1178G11  C04480733   5.155   4.584   6.816
  1178G11  C04380734   5.245   4.537   6.715
  1178G11  C04280735   5.335   4.437   6.766
  1178G11  C04180736   5.274   4.406   6.895
  1178G11  C04080737   5.321   4.297   6.979
  1178G11  C03Z80738   5.258   4.254   7.100
  1178G11  C04H80739   5.338   4.146   7.148
  1178G11  C04G80740   5.453   4.135   7.070
  1178G11  C03N80741   5.142   4.295   7.184
  1178G11  C03Y80742   5.130   4.214   7.297
  1178G11  C03X80743   5.211   4.101   7.338
  1178G11  C04F80744   5.445   4.220   6.966
  1178G11  C04E80745   5.559   4.238   6.882
  1178G11  C04O80746   5.678   4.171   6.921
  1178G11  C04D80747   5.568   4.322   6.770
  1178G11  C04V80748   5.697   4.340   6.714
  1178G11  C04W80749   5.815   4.280   6.756
  1178G11  C04C80750   5.472   4.410   6.708
  1178G11  C04L80751   5.553   4.482   6.608
  1178G11  C04U80752   5.505   4.592   6.528
  1178G11  C05Q80753   5.578   4.673   6.438
  1178G11  C05P80754   5.516   4.792   6.421
  1178G11  C04T80755   5.403   4.799   6.500
  1178G11  C04B80756   5.393   4.674   6.557
  1178G11  C03M80757   5.159   4.491   6.929
  1178G11  C04A80758   5.279   4.651   6.635
  1178G11  C05H80759   5.312   4.907   6.519
  1178G11  C05G80760   5.303   5.045   6.480
  1178G11  C05F80761   5.394   5.104   6.389
  1178G11  C05E80762   5.408   5.245   6.374
  1178G11  C05L80763   5.339   5.365   6.409
  1178G11  C05K80764   5.214   5.361   6.477
  1178G11  C05J80765   5.148   5.247   6.544
  1178G11  C06680766   5.152   5.489   6.494
  1178G11  C06580767   5.219   5.606   6.454
  1178G11  C06480768   5.340   5.601   6.387
  1178G11  C06N80769   5.171   5.732   6.484
  1178G11  C06980770   5.060   5.744   6.567
  1178G11  C06P80771   5.016   5.872   6.603
  1178G11  C06R80772   4.917   5.889   6.702
  1178G11  C06B80773   4.852   5.779   6.748
  1178G11  C06S80774   4.750   5.792   6.838
  1178G11  C02G80775   4.691   5.683   6.899
  1178G11  C02F80776   4.607   5.697   7.007
  1178G11  C02780777   4.583   5.822   7.064
  1178G11  C02680778   4.497   5.832   7.175
  1178G11  C00E80779   4.475   5.959   7.234
  1178G11  C00D80780   4.392   5.969   7.340
  1178G11  C00C80781   4.371   6.090   7.396
  1178G11  C00B80782   4.432   6.205   7.357
  1178G11  C01580783   4.518   6.189   7.250
  1178G11  C07F80784   4.582   6.301   7.204
  1178G11  C07E80785   4.660   6.293   7.090
  1178G11  C06W80786   4.679   6.171   7.021
  1178G11  C06V80787   4.620   6.055   7.073
  1178G11  C06X80788   4.762   6.155   6.912
  1178G11  C07B80789   4.834   6.268   6.864
  1178G11  C07C80790   4.825   6.391   6.931
  1178G11  C0FU80791   4.906   6.498   6.892
  1178G11  C0F780792   4.906   6.613   6.967
  1178G11  C0F680793   4.991   6.717   6.925
  1178G11  C0F880794   4.999   6.824   7.012
  1178G11  C0F980795   5.079   6.932   6.976
  1178G11  C0FA80796   5.093   7.040   7.061
  1178G11  C0FZ80797   5.012   7.045   7.170
  1178G11  C0G080798   5.031   7.148   7.264
  1178G11  C0GD80799   5.122   7.251   7.241
  1178G11  C0FC80800   5.185   7.256   7.116
  1178G11  C0GH80801   5.255   7.370   7.078
  1178G11  C0EY80802   5.305   7.378   6.948
  1178G11  C0EX80803   5.367   7.491   6.898
  1178G11  C0EW80804   5.398   7.498   6.762
  1178G11  C0FR80805   5.461   7.616   6.707
  1178G11  H01D80806   5.478   7.619   6.601
  1178G11  C0FS80807   5.493   7.724   6.790
  1178G11  H01C80808   5.537   7.813   6.749
  1178G11  C0GJ80809   5.465   7.712   6.926
  1178G11  H01N80810   5.490   7.794   6.992
  1178G11  C0EV80811   5.373   7.389   6.677
  1178G11  C0FT80812   5.408   7.388   6.535
  1178G11  H01E80813   5.439   7.470   6.472
  1178G11  C0EU80814   5.338   7.268   6.733
  1178G11  C0ET80815   5.344   7.145   6.661
  1178G11  C0EI80816   5.297   7.023   6.701
  1178G11  C0F180817   5.231   7.027   6.824
  1178G11  C0F080818   5.235   7.145   6.908
  1178G11  C0EH80819   5.293   6.916   6.610
  1178G11  C0EG80820   5.370   6.908   6.487
  1178G11  C0EJ80821   5.215   6.810   6.650
  1178G11  C0F380822   5.141   6.814   6.772
  1178G11  C0EK80823   5.220   6.690   6.579
  1178G11  C0EL80824   5.304   6.675   6.461
  1178G11  C0EM80825   5.309   6.539   6.410
  1178G11  C0EN80826   5.223   6.445   6.457
  1178G11  C07I80827   5.245   6.322   6.401
  1178G11  C07480828   5.178   6.208   6.442
  1178G11  C07380829   5.234   6.085   6.409
  1178G11  C07280830   5.179   5.973   6.463
  1178G11  C07580831   5.084   6.221   6.545
  1178G11  C07680832   5.063   6.346   6.600
  1178G11  C07880833   4.985   6.363   6.711
  1178G11  C07G80834   5.030   6.112   6.595
  1178G11  C07080835   4.941   6.128   6.704
  1178G11  C07Z80836   5.359   6.319   6.325
  1178G11  C07780837   5.135   6.461   6.562
  1178G11  C0EO80838   5.138   6.585   6.622
  1178G11  C0F480839   5.066   6.595   6.743
  1178G11  C0EQ80840   5.392   7.147   6.530
  1178G11  C0FQ80841   5.399   7.598   6.983
  1178G11  C0GI80842   5.367   7.582   7.116
  1178G11  H01L80843   5.389   7.658   7.190
  1178G11  C0EZ80844   5.292   7.265   6.861
  1178G11  C0GG80845   5.290   7.475   7.168
  1178G11  C0GF80846   5.245   7.460   7.298
  1178G11  H01M80847   5.285   7.527   7.372
  1178G11  C0GE80848   5.160   7.353   7.336
  1178G11  H01K80849   5.132   7.346   7.440
  1178G11  O00J80850   4.955   7.163   7.379
  1178G11  C0GA80851   4.857   7.078   7.396
  1178G11  C0G980852   4.769   7.091   7.504
  1178G11  H01H80853   4.793   7.170   7.574
  1178G11  C0G880854   4.662   7.003   7.527
  1178G11  C0G780855   4.568   7.017   7.632
  1178G11  H01I80856   4.574   7.106   7.695
  1178G11  O00I80857   4.473   6.919   7.666
  1178G11  C0G680858   4.475   6.813   7.591
  1178G11  H01J80859   4.392   6.747   7.613
  1178G11  C02D80860   4.569   6.784   7.483
  1178G11  C02C80861   4.570   6.664   7.419
  1178G11  C01780862   4.495   6.551   7.458
  1178G11  C01680863   4.497   6.433   7.386
  1178G11  O00180864   4.405   6.554   7.564
  1178G11  C01880865   4.343   6.451   7.619
  1178G11  C00980866   4.345   6.329   7.547
  1178G11  C00880867   4.283   6.206   7.593
  1178G11  C00780868   4.219   6.156   7.708
  1178G11  C00680869   4.196   6.230   7.829
  1178G11  C00580870   4.130   6.181   7.944
  1178G11  C00480871   4.102   6.043   7.984
  1178G11  C00380872   4.113   5.915   7.913
  1178G11  C00280873   4.077   5.795   7.984
  1178G11  C00P80874   4.093   5.670   7.923
  1178G11  C00O80875   4.060   5.553   7.991
  1178G11  C00N80876   4.084   5.425   7.941
  1178G11  C01080877   4.054   5.306   8.003
  1178G11  C01180878   4.093   5.181   7.957
  1178G11  C01Q80879   4.070   5.067   8.038
  1178G11  C01U80880   4.013   5.077   8.165
  1178G11  C01280881   3.969   5.205   8.209
  1178G11  H00080882   3.924   5.215   8.307
  1178G11  C01V80883   4.010   4.955   8.238
  1178G11  H00780884   3.972   4.960   8.339
  1178G11  O00580885   4.044   4.830   8.191
  1178G11  C01W80886   4.112   4.827   8.071
  1178G11  C03180887   4.159   4.706   8.019
  1178G11  C03280888   4.237   4.703   7.904
  1178G11  H00A80889   4.296   4.620   7.866
  1178G11  C03380890   4.259   4.819   7.840
  1178G11  H00B80891   4.336   4.811   7.765
  1178G11  C01O80892   4.193   4.938   7.871
  1178G11  C01N80893   4.202   5.049   7.787
  1178G11  C01M80894   4.257   5.035   7.648
  1178G11  C01L80895   4.323   4.947   7.545
  1178G11  C01K80896   4.361   5.032   7.437
  1178G11  C01Y80897   4.451   5.016   7.331
  1178G11  C02I80898   4.508   4.893   7.318
  1178G11  C02N80899   4.596   4.875   7.210
  1178G11  C02M80900   4.674   4.755   7.213
  1178G11  C02L80901   4.655   4.656   7.313
  1178G11  C02K80902   4.547   4.670   7.403
  1178G11  C02U80903   4.520   4.565   7.490
  1178G11  C02V80904   4.610   4.466   7.509
  1178G11  C03H80905   4.599   4.383   7.618
  1178G11  H00C80906   4.529   4.403   7.698
  1178G11  C02W80907   4.391   4.560   7.549
  1178G11  C02X80908   4.327   4.683   7.551
  1178G11  C02Y80909   4.212   4.648   7.627
  1178G11  H00880910   4.124   4.701   7.660
  1178G11  C02Z80911   4.215   4.497   7.649
  1178G11  O00480912   4.128   4.429   7.707
  1178G11  O00380913   4.333   4.458   7.606
  1178G11  C02J80914   4.468   4.789   7.409
  1178G11  C01Z80915   4.474   5.121   7.246
  1178G11  C02080916   4.438   5.250   7.276
  1178G11  C01I80917   4.353   5.265   7.386
  1178G11  C01H80918   4.326   5.390   7.440
  1178G11  C00K80919   4.262   5.399   7.566
  1178G11  C01S80920   4.231   5.287   7.636
  1178G11  C01480921   4.179   5.290   7.759
  1178G11  C00J80922   4.233   5.522   7.619
  1178G11  C00I80923   4.276   5.633   7.548
  1178G11  C00H80924   4.343   5.622   7.423
  1178G11  C00G80925   4.382   5.731   7.353
  1178G11  C00S80926   4.242   5.755   7.599
  1178G11  C00T80927   4.279   5.863   7.523
  1178G11  C00U80928   4.244   5.983   7.571
  1178G11  C00R80929   4.181   5.772   7.726
  1178G11  C00L80930   4.174   5.531   7.744
  1178G11  C02880931   4.370   5.495   7.373
  1178G11  C02380932   4.435   5.484   7.255
  1178G11  C02480933   4.477   5.597   7.183
  1178G11  C02180934   4.465   5.359   7.205
  1178G11  C02280935   4.536   5.344   7.092
  1178G11  C02H80936   4.588   5.456   7.026
  1178G11  C03080937   4.673   5.441   6.918
  1178G11  C03480938   4.703   5.316   6.877
  1178G11  C02P80939   4.573   5.215   7.052
  1178G11  C02B80940   4.551   5.106   7.135
  1178G11  C01J80941   4.310   5.152   7.454
  1178G11  C01X80942   4.365   4.813   7.507
  1178G11  C01T80943   4.262   5.160   7.585
  1178G11  H00980944   4.147   4.615   8.076
  1178G11  C01P80945   4.119   4.945   7.991
  1178G11  C01R80946   4.159   5.175   7.835
  1178G11  C00Z80947   3.993   5.317   8.130
  1178G11  O00080948   3.969   5.445   8.186
  1178G11  C00M80949   4.146   5.417   7.815
  1178G11  C00Y80950   4.001   5.558   8.120
  1178G11  C01380951   3.980   5.681   8.178
  1178G11  H00180952   3.921   5.679   8.268
  1178G11  C00Q80953   4.151   5.658   7.798
  1178G11  C00180954   4.027   5.799   8.114
  1178G11  C00080955   4.020   5.924   8.178
  1178G11  H00680956   3.981   5.921   8.279
  1178G11  C00W80957   4.156   5.898   7.781
  1178G11  C01G80958   4.065   6.037   8.120
  1178G11  H00580959   4.078   6.121   8.186
  1178G11  C01C80960   4.102   6.300   8.020
  1178G11  H00280961   4.047   6.316   8.111
  1178G11  C01B80962   4.149   6.414   7.949
  1178G11  C01D80963   4.149   6.549   7.989
  1178G11  H00380964   4.111   6.588   8.082
  1178G11  C01E80965   4.224   6.629   7.910
  1178G11  H00480966   4.244   6.730   7.944
  1178G11  O00280967   4.284   6.595   7.786
  1178G11  C01A80968   4.215   6.372   7.832
  1178G11  C00V80969   4.202   6.012   7.699
  1178G11  C01980970   4.277   6.466   7.742
  1178G11  C02E80971   4.652   6.649   7.302
  1178G11  C0FX80972   4.739   6.754   7.268
  1178G11  C0FW80973   4.817   6.738   7.155
  1178G11  C0GB80974   4.747   6.869   7.343
  1178G11  C0G380975   4.654   6.529   7.230
  1178G11  C07H80976   4.740   6.514   7.119
  1178G11  C0GC80977   4.660   6.884   7.450
  1178G11  C0G280978   4.838   6.969   7.309
  1178G11  C0G180979   4.918   6.950   7.199
  1178G11  C0FB80980   5.173   7.149   7.030
  1178G11  C0F280981   5.153   6.922   6.856
  1178G11  C0FY80982   4.912   6.836   7.124
  1178G11  C0F580983   5.067   6.708   6.818
  1178G11  C0FV80984   4.817   6.620   7.074
  1178G11  C07980985   4.984   6.484   6.779
  1178G11  C07A80986   4.916   6.250   6.758
  1178G11  C06Y80987   4.791   6.026   6.851
  1178G11  C07D80988   4.740   6.398   7.044
  1178G11  C01F80989   4.576   6.425   7.274
  1178G11  C00A80990   4.422   6.325   7.429
  1178G11  C00X80991   4.301   6.095   7.514
  1178G11  C00F80992   4.350   5.854   7.401
  1178G11  C02980993   4.542   6.070   7.186
  1178G11  C02580994   4.448   5.720   7.234
  1178G11  C06U80995   4.645   5.932   7.016
  1178G11  C02A80996   4.559   5.581   7.071
  1178G11  C05Y80997   4.728   5.553   6.856
  1178G11  C05Z80998   4.823   5.534   6.755
  1178G11  C06080999   4.869   5.410   6.723
  1178G11  C06281000   4.972   5.391   6.634
  1178G11  C06T81001   4.724   5.916   6.901
  1178G11  C06A81002   4.888   5.649   6.704
  1178G11  C06Z81003   4.879   6.015   6.749
  1178G11  C06Q81004   5.070   5.986   6.552
  1178G11  C06881005   4.992   5.631   6.609
  1178G11  C06781006   5.034   5.503   6.572
  1178G11  C06381007   5.398   5.484   6.359
  1178G11  C06C81008   5.527   5.481   6.303
  1178G11  C06D81009   5.594   5.365   6.276
  1178G11  C06E81010   5.728   5.352   6.228
  1178G11  C07Q81011   5.796   5.465   6.200
  1178G11  C07P81012   5.727   5.588   6.209
  1178G11  C07T81013   5.787   5.698   6.163
  1178G11  C07U81014   5.722   5.820   6.168
  1178G11  C07V81015   5.792   5.934   6.131
  1178G11  C08481016   5.927   5.927   6.094
  1178G11  C08C81017   5.985   5.804   6.074
  1178G11  C08B81018   6.113   5.795   6.024
  1178G11  C08A81019   6.173   5.671   6.018
  1178G11  C08981020   6.117   5.558   6.066
  1178G11  C08881021   6.194   5.439   6.068
  1178G11  C08781022   6.131   5.322   6.109
  1178G11  C08681023   5.999   5.331   6.153
  1178G11  C08X81024   6.332   5.435   6.036
  1178G11  C08T81025   6.397   5.569   6.015
  1178G11  C08D81026   5.990   5.573   6.114
  1178G11  C08U81027   6.309   5.672   5.991
  1178G11  C08V81028   6.376   5.786   5.968
  1178G11  C0CY81029   6.313   5.912   5.971
  1178G11  C0CX81030   6.394   6.022   5.943
  1178G11  C0CW81031   6.335   6.151   5.958
  1178G11  C0CV81032   6.204   6.154   6.001
  1178G11  C0D481033   6.131   6.036   6.026
  1178G11  C0CU81034   6.144   6.281   6.012
  1178G11  C0CT81035   6.209   6.403   5.986
  1178G11  C0CS81036   6.343   6.387   5.949
  1178G11  C0D681037   6.014   6.275   6.057
  1178G11  C0EC81038   5.941   6.166   6.082
  1178G11  C07X81039   5.802   6.171   6.122
  1178G11  C0DL81040   5.960   6.398   6.073
  1178G11  C0DK81041   5.829   6.404   6.109
  1178G11  C0DN81042   5.795   6.540   6.100
  1178G11  C0D881043   6.012   6.526   6.043
  1178G11  C08W81044   6.514   5.767   5.972
  1178G11  C0CQ81045   6.601   5.878   5.946
  1178G11  C09381046   6.185   5.914   6.006
  1178G11  C09281047   5.996   6.043   6.063
  1178G11  C08581048   5.916   5.691   6.116
  1178G11  C07S81049   5.927   5.455   6.154
  1178G11  C06F81050   5.800   5.228   6.225
  1178G11  C07O81051   5.596   5.595   6.261
  1178G11  C07N81052   5.532   5.715   6.271
  1178G11  C05D81053   5.532   5.249   6.310
  1178G11  C05C81054   5.594   5.126   6.280
  1178G11  C05N81055   5.511   5.034   6.338
  1178G11  C05M81056   5.199   5.109   6.545
  1178G11  C05I81057   5.032   5.260   6.621
  1178G11  C06181058   4.804   5.303   6.783
  1178G11  C02Q81059   4.645   5.210   6.938
  1178G11  C02O81060   4.612   4.981   7.116
  1178G11  C03Q81061   4.838   4.954   6.835
  1178G11  C03O81062   5.008   4.786   6.830
  1178G11  C03L81063   5.072   4.493   7.038
  1178G11  C02S81064   4.788   4.731   7.124
  1178G11  C02T81065   4.742   4.545   7.320
  1178G11  C03K81066   5.056   4.403   7.155
  1178G11  C03I81067   4.722   4.453   7.420
  1178G11  C03G81068   4.689   4.284   7.640
  1178G11  H00D81069   4.684   4.221   7.728
  1178G11  C03J81070   5.024   4.243   7.377
  1178G11  C03W81071   5.196   4.034   7.460
  1178G11  C04I81072   5.320   4.067   7.262
  1178G11  C04K81073   5.555   4.061   7.107
  1178G11  C04N81074   5.671   4.084   7.034
  1178G11  C04X81075   5.799   4.189   6.852
  1178G11  C05081076   5.932   4.305   6.683
  1178G11  C05W81077   5.691   4.433   6.609
  1178G11  C05S81078   6.056   4.629   6.361
  1178G11  C05R81079   5.706   4.657   6.397
  1178G11  C05O81080   5.562   4.906   6.357
  1178G11  C05B81081   5.727   5.116   6.253
  1178G11  C05A81082   5.961   4.842   6.277
  1178G11  C07R81083   5.931   5.214   6.195
  1178G11  C08N81084   6.207   5.207   6.132
  1178G11  C08M81085   6.340   5.200   6.091
  1178G11  C08L81086   6.410   5.080   6.101
  1178G11  C09181087   6.081   4.773   6.318
  1178G11  C09K81088   6.423   4.741   6.383
  1178G11  H00M81089   6.403   4.719   6.487
  1178G11  C08K81090   6.346   4.963   6.154
  1178G11  C09J81091   6.555   4.755   6.326
  1178G11  C09I81092   6.691   4.779   6.380
  1178G11  C09L81093   6.766   4.725   6.489
  1178G11  H00N81094   6.713   4.674   6.568
  1178G11  C09Q81095   6.899   4.759   6.499
  1178G11  H00O81096   6.948   4.715   6.585
  1178G11  O00B81097   6.967   4.847   6.413
  1178G11  C09G81098   6.896   4.898   6.299
  1178G11  C09F81099   6.967   5.000   6.230
  1178G11  O00A81100   7.095   5.015   6.284
  1178G11  C09P81101   7.172   5.086   6.199
  1178G11  H00P81102   7.276   5.057   6.187
  1178G11  C09O81103   7.123   5.210   6.150
  1178G11  C09D81104   6.990   5.207   6.097
  1178G11  C09C81105   6.925   5.304   6.012
  1178G11  C09N81106   6.952   5.437   5.976
  1178G11  C09T81107   7.043   5.511   6.050
  1178G11  C09S81108   7.165   5.455   6.099
  1178G11  C0CP81109   7.260   5.558   6.088
  1178G11  C0CN81110   7.206   5.674   6.030
  1178G11  C0CO81111   7.303   5.773   6.007
  1178G11  H01481112   7.267   5.860   5.953
  1178G11  C0CZ81113   7.436   5.760   6.053
  1178G11  H01581114   7.503   5.842   6.033
  1178G11  C0D081115   7.485   5.644   6.120
  1178G11  C0G581116   7.615   5.629   6.167
  1178G11  H01F81117   7.693   5.703   6.161
  1178G11  C0G481118   7.646   5.507   6.225
  1178G11  H01G81119   7.747   5.493   6.258
  1178G11  O00H81120   7.563   5.394   6.240
  1178G11  C0D281121   7.442   5.416   6.184
  1178G11  C09V81122   7.347   5.308   6.190
  1178G11  H00Q81123   7.380   5.216   6.237
  1178G11  C0D181124   7.394   5.534   6.130
  1178G11  C09R81125   7.208   5.325   6.145
  1178G11  C09H81126   6.758   4.853   6.276
  1178G11  C09E81127   6.912   5.087   6.129
  1178G11  C09B81128   6.806   5.279   5.944
  1178G11  C08Z81129   6.549   5.088   6.073
  1178G11  C08O81130   6.403   5.315   6.036
  1178G11  C09A81131   6.746   5.382   5.878
  1178G11  C08S81132   6.527   5.630   5.995
  1178G11  C09981133   6.836   5.490   5.901
  1178G11  C09U81134   7.056   5.650   6.027
  1178G11  C0BO81135   7.009   6.113   6.002
  1178G11  C0CL81136   6.741   5.865   5.953
  1178G11  C0D381137   6.534   6.002   5.938
  1178G11  C0D581138   6.404   6.263   5.938
  1178G11  C0BR81139   6.814   6.233   5.925
  1178G11  C0BQ81140   6.951   6.231   5.953
  1178G11  C0BL81141   7.204   6.236   6.067
  1178G11  C0AF81142   7.359   6.462   6.045
  1178G11  C0BH81143   7.046   6.571   5.890
  1178G11  C0BG81144   6.986   6.688   5.850
  1178G11  C0BD81145   7.201   6.803   5.863
  1178G11  C0AG81146   7.435   6.575   6.020
  1178G11  C0AI81147   7.598   6.713   6.125
  1178G11  C0AV81148   7.662   6.963   6.224
  1178G11  C0BB81149   7.493   7.038   5.902
  1178G11  O00C81150   7.613   7.201   6.189
  1178G11  C0BC81151   7.442   7.160   5.862
  1178G11  C0B981152   7.278   6.922   5.854
  1178G11  O00E81153   7.022   7.155   5.753
  1178G11  C0CA81154   6.890   7.174   5.753
  1178G11  O00F81155   6.852   7.288   5.726
  1178G11  C0BF81156   7.062   6.806   5.842
  1178G11  C0C581157   6.808   7.057   5.784
  1178G11  C0C481158   6.671   7.080   5.809
  1178G11  H01181159   6.633   7.181   5.806
  1178G11  C0C881160   6.848   6.700   5.846
  1178G11  C0C281161   6.596   6.963   5.839
  1178G11  C0C381162   6.460   6.961   5.859
  1178G11  C0DY81163   6.374   7.080   5.855
  1178G11  H01681164   6.401   7.183   5.840
  1178G11  C0DX81165   6.240   7.033   5.889
  1178G11  C0DW81166   6.154   7.131   5.940
  1178G11  C0BY81167   6.631   6.595   5.874
  1178G11  C0DB81168   6.379   6.856   5.897
  1178G11  C0CC81169   6.416   6.504   5.929
  1178G11  C0D781170   6.146   6.531   5.995
  1178G11  C0DZ81171   6.248   6.888   5.928
  1178G11  C0DM81172   5.907   6.621   6.057
  1178G11  C0DQ81173   5.976   6.970   6.035
  1178G11  C0DV81174   6.039   7.094   6.014
  1178G11  C0E081175   6.167   7.279   5.962
  1178G11  C0FO81176   5.907   7.510   6.035
  1178G11  C0E381177   6.176   7.382   5.866
  1178G11  H01781178   6.195   7.369   5.761
  1178G11  C0GV81179   5.907   7.608   5.942
  1178G11  C0ES81180   5.783   7.446   6.069
  1178G11  C0GQ81181   5.558   7.718   5.940
  1178G11  C0FJ81182   5.321   7.539   6.168
  1178G11  C0ED81183   5.519   7.344   6.145
  1178G11  C0ER81184   5.409   7.265   6.466
  1178G11  C0EP81185   5.408   7.036   6.451
  1178G11  C0E681186   5.643   7.116   6.168
  1178G11  C0DE81187   5.659   6.807   6.152
  1178G11  C0EA81188   5.379   6.788   6.416
  1178G11  C0DF81189   5.597   6.684   6.136
  1178G11  C08081190   5.391   6.459   6.328
  1178G11  C0DO81191   5.662   6.560   6.129
  1178G11  C0DJ81192   5.746   6.292   6.139
  1178G11  C07K81193   5.420   6.196   6.292
  1178G11  C07W81194   5.734   6.057   6.158
  1178G11  C08381195   5.597   5.832   6.229
  1178G11  C07J81196   5.352   6.081   6.330
  1178G11  C06O81197   5.231   5.845   6.430
  1178G11  C06M81198   5.409   5.718   6.339
  1188G11  C07181199   5.935   1.878  12.353
  1188G11  C07L81200   5.875   1.961  12.454
  1188G11  C07M81201   5.940   1.980  12.577
  1188G11  C07Y81202   5.889   2.073  12.669
  1188G11  C08181203   5.766   2.143  12.648
  1188G11  C08281204   5.722   2.234  12.746
  1188G11  C0DI81205   5.589   2.307  12.764
  1188G11  C0DH81206   5.488   2.334  12.678
  1188G11  C0DG81207   5.384   2.412  12.736
  1188G11  C0E981208   5.311   2.528  12.689
  1188G11  C0E881209   5.290   2.596  12.818
  1188G11  C0E781210   5.174   2.684  12.846
  1188G11  C0EB81211   5.080   2.721  12.740
  1188G11  C0EF81212   4.944   2.772  12.761
  1188G11  C0EE81213   4.855   2.728  12.862
  1188G11  C0FD81214   4.739   2.653  12.830
  1188G11  C0FE81215   4.695   2.611  12.704
  1188G11  H01B81216   4.751   2.637  12.616
  1188G11  C0FF81217   4.587   2.531  12.687
  1188G11  H01A81218   4.562   2.489  12.590
  1188G11  C0FG81219   4.507   2.493  12.791
  1188G11  H01881220   4.419   2.435  12.767
  1188G11  C0FH81221   4.541   2.540  12.918
  1188G11  C0FI81222   4.468   2.502  13.030
  1188G11  H01981223   4.384   2.435  13.021
  1188G11  O00K81224   4.498   2.538  13.162
  1188G11  C0FL81225   4.613   2.609  13.179
  1188G11  C0FK81226   4.691   2.660  13.071
  1188G11  C0FM81227   4.811   2.730  13.098
  1188G11  C0FN81228   4.833   2.778  13.228
  1188G11  C0FP81229   4.745   2.737  13.332
  1188G11  C0GO81230   4.771   2.772  13.464
  1188G11  C0GN81231   4.709   2.714  13.573
  1188G11  C0GR81232   4.598   2.635  13.548
  1188G11  C0GS81233   4.534   2.566  13.647
  1188G11  H01Q81234   4.445   2.509  13.625
  1188G11  C0GT81235   4.574   2.581  13.781
  1188G11  H01O81236   4.532   2.524  13.862
  1188G11  C0GU81237   4.683   2.663  13.808
  1188G11  H01P81238   4.720   2.672  13.909
  1188G11  O00L81239   4.557   2.615  13.415
  1188G11  C0GM81240   4.756   2.735  13.709
  1188G11  C0GL81241   4.867   2.822  13.724
  1188G11  H01R81242   4.900   2.839  13.826
  1188G11  C0GK81243   4.933   2.882  13.620
  1188G11  C0GP81244   5.066   2.943  13.594
  1188G11  C0E281245   5.069   2.978  13.449
  1188G11  C0E181246   5.208   2.962  13.404
  1188G11  C0DU81247   5.254   2.883  13.303
  1188G11  C0DT81248   5.191   2.842  13.187
  1188G11  C0E481249   5.056   2.828  13.172
  1188G11  C0E581250   5.035   2.778  13.043
  1188G11  C0DS81251   5.251   2.768  13.080
  1188G11  C0DR81252   5.379   2.718  13.109
  1188G11  C0DD81253   5.442   2.620  13.038
  1188G11  C0DC81254   5.564   2.599  13.121
  1188G11  C0DP81255   5.572   2.678  13.241
  1188G11  C0DA81256   5.674   2.687  13.349
  1188G11  C0D981257   5.820   2.636  13.337
  1188G11  C0CR81258   5.923   2.700  13.410
  1188G11  C0C081259   5.898   2.804  13.498
  1188G11  C0BZ81260   5.987   2.875  13.568
  1188G11  C0C181261   5.951   2.984  13.648
  1188G11  C0C781262   6.055   3.063  13.706
  1188G11  C0C681263   6.021   3.188  13.772
  1188G11  C0C981264   6.120   3.270  13.812
  1188G11  C0B881265   6.085   3.393  13.878
  1188G11  C0B781266   6.187   3.488  13.910
  1188G11  C0B681267   6.178   3.625  13.954
  1188G11  C0B581268   6.084   3.716  13.885
  1188G11  H00Z81269   6.006   3.685  13.817
  1188G11  C0B481270   6.157   3.838  13.879
  1188G11  H01081271   6.133   3.922  13.815
  1188G11  C0B381272   6.266   3.842  13.970
  1188G11  C0AP81273   6.399   3.886  13.927
  1188G11  C0AQ81274   6.475   3.773  13.928
  1188G11  C0AR81275   6.596   3.756  13.854
  1188G11  C0AS81276   6.634   3.626  13.843
  1188G11  C0AT81277   6.552   3.516  13.867
  1188G11  C0BA81278   6.429   3.537  13.909
  1188G11  C0AU81279   6.584   3.393  13.816
  1188G11  C0BE81280   6.485   3.291  13.802
  1188G11  C0BI81281   6.525   3.175  13.732
  1188G11  C0BJ81282   6.655   3.161  13.681
  1188G11  C0BK81283   6.682   3.046  13.613
  1188G11  C0BW81284   6.589   2.943  13.598
  1188G11  C0BV81285   6.452   2.966  13.629
  1188G11  C0BU81286   6.355   2.884  13.587
  1188G11  C0BX81287   6.221   2.923  13.601
  1188G11  C0BT81288   6.390   2.765  13.532
  1188G11  C0CD81289   6.290   2.687  13.477
  1188G11  C0CB81290   6.158   2.726  13.482
  1188G11  C0CE81291   6.328   2.572  13.405
  1188G11  C0CK81292   6.464   2.529  13.405
  1188G11  C0BS81293   6.565   2.610  13.458
  1188G11  C0CJ81294   6.702   2.579  13.439
  1188G11  C0BP81295   6.795   2.681  13.461
  1188G11  C0CI81296   6.926   2.657  13.440
  1188G11  C0CH81297   7.013   2.770  13.417
  1188G11  H01281298   7.109   2.741  13.376
  1188G11  C0BN81299   6.972   2.901  13.455
  1188G11  C0CG81300   7.058   3.011  13.437
  1188G11  C0CF81301   7.189   3.000  13.380
  1188G11  H01381302   7.237   2.907  13.356
  1188G11  O00G81303   7.270   3.110  13.358
  1188G11  C0AA81304   7.222   3.236  13.387
  1188G11  C0A981305   7.300   3.340  13.348
  1188G11  H00U81306   7.395   3.329  13.298
  1188G11  C0A881307   7.254   3.469  13.381
  1188G11  H00V81308   7.318   3.552  13.355
  1188G11  C0A781309   7.131   3.497  13.448
  1188G11  C0A681310   7.050   3.382  13.491
  1188G11  C0A581311   6.927   3.386  13.560
  1188G11  C0A481312   6.885   3.506  13.631
  1188G11  C0A381313   6.914   3.645  13.621
  1188G11  C0A281314   6.985   3.697  13.514
  1188G11  C0A181315   6.989   3.840  13.484
  1188G11  C0A081316   6.912   3.956  13.519
  1188G11  C09Z81317   6.947   4.076  13.453
  1188G11  C09Y81318   6.863   4.187  13.457
  1188G11  H00Y81319   6.887   4.275  13.398
  1188G11  C09X81320   6.750   4.185  13.538
  1188G11  C09W81321   6.669   4.300  13.527
  1188G11  H00R81322   6.689   4.377  13.454
  1188G11  C0AX81323   6.549   4.311  13.597
  1188G11  H00S81324   6.482   4.395  13.595
  1188G11  C0AW81325   6.522   4.205  13.689
  1188G11  H00T81326   6.439   4.223  13.755
  1188G11  C0AN81327   6.593   4.085  13.691
  1188G11  C0AO81328   6.556   3.972  13.771
  1188G11  C0AM81329   6.713   4.076  13.613
  1188G11  C0B281330   7.066   4.099  13.385
  1188G11  O00D81331   7.111   4.207  13.349
  1188G11  C0B181332   7.154   3.989  13.362
  1188G11  H00W81333   7.248   3.997  13.309
  1188G11  C0AL81334   6.794   3.954  13.602
  1188G11  C0AK81335   6.754   3.844  13.689
  1188G11  C0B081336   7.109   3.862  13.410
  1188G11  C0AZ81337   7.179   3.741  13.391
  1188G11  H00X81338   7.276   3.739  13.343
  1188G11  C0AJ81339   6.810   3.712  13.691
  1188G11  C0AH81340   6.777   3.490  13.717
  1188G11  C0AE81341   6.851   3.267  13.588
  1188G11  C0AD81342   6.897   3.151  13.545
  1188G11  C0AY81343   7.094   3.636  13.447
  1188G11  C0AB81344   7.098   3.255  13.451
  1188G11  C0AC81345   7.022   3.140  13.479
  1188G11  C0BM81346   6.848   2.915  13.506
  1188G11  C0CM81347   6.977   2.523  13.447
  1188G11  C09M81348   6.884   2.418  13.405
  1188G11  C09881349   6.938   2.286  13.373
  1188G11  C08R81350   6.888   2.172  13.295
  1188G11  C08Q81351   6.975   2.061  13.275
  1188G11  C08P81352   7.002   1.956  13.180
  1188G11  C08Y81353   7.138   1.919  13.162
  1188G11  C09781354   7.236   1.998  13.218
  1188G11  C09681355   7.349   2.008  13.148
  1188G11  C09081356   7.341   1.899  13.057
  1188G11  C09581357   7.441   1.851  12.972
  1188G11  C09481358   7.420   1.738  12.883
  1188G11  C08J81359   7.301   1.658  12.854
  1188G11  C08I81360   7.316   1.636  12.714
  1188G11  C08H81361   7.182   1.615  12.658
  1188G11  C08G81362   7.084   1.659  12.758
  1188G11  C08F81363   6.940   1.677  12.770
  1188G11  C08E81364   6.853   1.625  12.673
  1188G11  C05981365   6.887   1.524  12.578
  1188G11  C05881366   6.794   1.475  12.487
  1188G11  C05781367   6.817   1.384  12.383
  1188G11  C05681368   6.943   1.327  12.387
  1188G11  C05581369   7.037   1.349  12.487
  1188G11  C05481370   7.165   1.329  12.424
  1188G11  C05381371   7.147   1.280  12.291
  1188G11  C05281372   7.247   1.253  12.190
  1188G11  C05181373   7.382   1.298  12.206
  1188G11  C05U81374   7.442   1.368  12.318
  1188G11  C05T81375   7.388   1.429  12.436
  1188G11  C06K81376   7.502   1.445  12.526
  1188G11  H00J81377   7.497   1.459  12.633
  1188G11  C06L81378   7.617   1.439  12.454
  1188G11  H00I81379   7.717   1.464  12.485
  1188G11  C05V81380   7.583   1.379  12.333
  1188G11  C06J81381   7.667   1.336  12.233
  1188G11  H00K81382   7.775   1.340  12.246
  1188G11  C05X81383   7.619   1.272  12.118
  1188G11  C06I81384   7.705   1.232  12.016
  1188G11  H00L81385   7.812   1.228  12.028
  1188G11  C04Z81386   7.659   1.174  11.895
  1188G11  C06H81387   7.750   1.132  11.791
  1188G11  H00H81388   7.856   1.129  11.809
  1188G11  C04Y81389   7.692   1.083  11.667
  1188G11  C06G81390   7.786   1.045  11.559
  1188G11  O00981391   7.907   1.060  11.567
  1188G11  O00881392   7.734   0.987  11.454
  1188G11  C04P81393   7.601   0.991  11.428
  1188G11  C04J81394   7.543   0.971  11.299
  1188G11  C04Q81395   7.601   0.910  11.186
  1188G11  H00E81396   7.705   0.883  11.195
  1188G11  C04M81397   7.531   0.884  11.062
  1188G11  C04R81398   7.591   0.828  10.948
  1188G11  H00F81399   7.695   0.802  10.938
  1188G11  C04S81400   7.508   0.805  10.840
  1188G11  H00G81401   7.553   0.765  10.751
  1188G11  O00781402   7.372   0.830  10.830
  1188G11  C03V81403   7.315   0.901  10.935
  1188G11  C03U81404   7.183   0.950  10.922
  1188G11  O00681405   7.122   0.942  10.803
  1188G11  C03F81406   7.019   1.028  10.778
  1188G11  C03E81407   6.946   1.077  10.892
  1188G11  C03D81408   6.994   1.050  11.023
  1188G11  C03C81409   6.919   1.099  11.131
  1188G11  C03B81410   6.792   1.153  11.103
  1188G11  C03A81411   6.710   1.184  11.210
  1188G11  C03981412   6.750   1.178  11.345
  1188G11  C03881413   6.641   1.234  11.421
  1188G11  C03781414   6.546   1.268  11.324
  1188G11  C03681415   6.418   1.303  11.353
  1188G11  C02R81416   6.321   1.359  11.273
  1188G11  C03581417   6.216   1.395  11.360
  1188G11  C03R81418   6.264   1.389  11.492
  1188G11  C03S81419   6.225   1.461  11.597
  1188G11  C04981420   6.302   1.453  11.713
  1188G11  C04881421   6.418   1.371  11.707
  1188G11  C03P81422   6.479   1.309  11.587
  1188G11  C04781423   6.480   1.359  11.832
  1188G11  C04681424   6.594   1.288  11.869
  1188G11  C04581425   6.681   1.211  11.788
  1188G11  C03T81426   6.692   1.198  11.653
  1188G11  C04481427   6.818   1.136  11.632
  1188G11  C04381428   6.865   1.081  11.755
  1188G11  C04281429   7.005   1.094  11.749
  1188G11  C04181430   7.029   1.091  11.602
  1188G11  C04081431   7.157   1.068  11.533
  1188G11  C03Z81432   7.183   1.044  11.394
  1188G11  C04H81433   7.324   1.012  11.396
  1188G11  C04G81434   7.384   1.035  11.514
  1188G11  C03N81435   7.105   1.037  11.273
  1188G11  C03Y81436   7.185   0.994  11.160
  1188G11  C03X81437   7.329   0.973  11.164
  1188G11  C04F81438   7.284   1.071  11.603
  1188G11  C04E81439   7.329   1.097  11.736
  1188G11  C04O81440   7.465   1.114  11.756
  1188G11  C04D81441   7.248   1.116  11.847
  1188G11  C04V81442   7.302   1.159  11.968
  1188G11  C04W81443   7.437   1.192  11.990
  1188G11  C04C81444   7.106   1.110  11.861
  1188G11  C04L81445   7.081   1.141  12.002
  1188G11  C04U81446   6.945   1.172  12.057
  1188G11  C05Q81447   6.926   1.231  12.177
  1188G11  C05P81448   6.789   1.267  12.180
  1188G11  C04T81449   6.731   1.249  12.055
  1188G11  C04B81450   6.819   1.177  11.983
  1188G11  C03M81451   6.908   1.118  11.523
  1188G11  C04A81452   6.790   1.148  11.848
  1188G11  C05H81453   6.611   1.299  12.003
  1188G11  C05G81454   6.512   1.386  12.052
  1188G11  C05F81455   6.509   1.432  12.184
  1188G11  C05E81456   6.418   1.529  12.232
  1188G11  C05L81457   6.302   1.603  12.190
  1188G11  C05K81458   6.249   1.592  12.058
  1188G11  C05J81459   6.310   1.517  11.950
  1188G11  C06681460   6.131   1.664  12.038
  1188G11  C06581461   6.067   1.738  12.138
  1188G11  C06481462   6.125   1.748  12.267
  1188G11  C06N81463   5.950   1.814  12.116
  1188G11  C06981464   5.892   1.820  11.991
  1188G11  C06P81465   5.783   1.900  11.962
  1188G11  C06R81466   5.744   1.928  11.829
  1188G11  C06B81467   5.807   1.861  11.725
  1188G11  C06S81468   5.775   1.894  11.597
  1188G11  C02G81469   5.833   1.829  11.492
  1188G11  C02F81470   5.799   1.860  11.358
  1188G11  C02781471   5.729   1.978  11.333
  1188G11  C02681472   5.720   2.026  11.203
  1188G11  C00E81473   5.644   2.139  11.173
  1188G11  C00D81474   5.633   2.182  11.043
  1188G11  C00C81475   5.559   2.292  11.025
  1188G11  C00B81476   5.508   2.368  11.120
  1188G11  C01581477   5.513   2.319  11.255
  1188G11  C07F81478   5.468   2.402  11.358
  1188G11  C07E81479   5.478   2.350  11.489
  1188G11  C06W81480   5.540   2.227  11.514
  1188G11  C06V81481   5.592   2.155  11.414
  1188G11  C06X81482   5.558   2.178  11.644
  1188G11  C07B81483   5.492   2.244  11.748
  1188G11  C07C81484   5.432   2.370  11.726
  1188G11  C0FU81485   5.369   2.439  11.823
  1188G11  C0F781486   5.311   2.560  11.798
  1188G11  C0F681487   5.248   2.632  11.902
  1188G11  C0F881488   5.207   2.760  11.880
  1188G11  C0F981489   5.152   2.837  11.982
  1188G11  C0FA81490   5.112   2.970  11.962
  1188G11  C0FZ81491   5.144   3.034  11.844
  1188G11  C0G081492   5.114   3.168  11.830
  1188G11  C0GD81493   5.050   3.244  11.924
  1188G11  C0FC81494   5.006   3.174  12.038
  1188G11  C0GH81495   4.921   3.231  12.136
  1188G11  C0EY81496   4.879   3.160  12.248
  1188G11  C0EX81497   4.782   3.207  12.339
  1188G11  C0EW81498   4.741   3.130  12.449
  1188G11  C0FR81499   4.631   3.172  12.524
  1188G11  H01D81500   4.587   3.110  12.601
  1188G11  C0FS81501   4.565   3.285  12.494
  1188G11  H01C81502   4.481   3.311  12.556
  1188G11  C0GJ81503   4.610   3.368  12.397
  1188G11  H01N81504   4.551   3.455  12.374
  1188G11  C0EV81505   4.818   3.016  12.482
  1188G11  C0FT81506   4.810   2.952  12.616
  1188G11  H01E81507   4.729   2.977  12.684
  1188G11  C0EU81508   4.915   2.972  12.394
  1188G11  C0ET81509   4.998   2.866  12.421
  1188G11  C0EI81510   5.080   2.800  12.336
  1188G11  C0F181511   5.085   2.854  12.209
  1188G11  C0F081512   5.018   2.976  12.176
  1188G11  C0EH81513   5.154   2.689  12.379
  1188G11  C0EG81514   5.178   2.655  12.516
  1188G11  C0EJ81515   5.211   2.610  12.275
  1188G11  C0F381516   5.205   2.654  12.139
  1188G11  C0EK81517   5.288   2.498  12.306
  1188G11  C0EL81518   5.323   2.465  12.439
  1188G11  C0EM81519   5.411   2.353  12.446
  1188G11  C0EN81520   5.436   2.272  12.334
  1188G11  C07I81521   5.537   2.179  12.364
  1188G11  C07481522   5.597   2.103  12.263
  1188G11  C07381523   5.704   2.023  12.300
  1188G11  C07281524   5.765   1.950  12.196
  1188G11  C07581525   5.558   2.127  12.135
  1188G11  C07681526   5.465   2.228  12.106
  1188G11  C07881527   5.447   2.274  11.980
  1188G11  C07G81528   5.615   2.054  12.035
  1188G11  C07081529   5.579   2.082  11.903
  1188G11  C07Z81530   5.582   2.191  12.492
  1188G11  C07781531   5.406   2.305  12.204
  1188G11  C0EO81532   5.336   2.423  12.192
  1188G11  C0F481533   5.313   2.462  12.063
  1188G11  C0EQ81534   4.999   2.814  12.552
  1188G11  C0FQ81535   4.721   3.328  12.311
  1188G11  C0GI81536   4.786   3.407  12.211
  1188G11  H01L81537   4.749   3.508  12.202
  1188G11  C0EZ81538   4.932   3.038  12.273
  1188G11  C0GG81539   4.886   3.366  12.124
  1188G11  C0GF81540   4.956   3.442  12.029
  1188G11  H01M81541   4.929   3.546  12.034
  1188G11  C0GE81542   5.028   3.385  11.927
  1188G11  H01K81543   5.065   3.447  11.847
  1188G11  O00J81544   5.151   3.229  11.715
  1188G11  C0GA81545   5.208   3.157  11.618
  1188G11  C0G981546   5.247   3.222  11.501
  1188G11  H01H81547   5.242   3.329  11.490
  1188G11  C0G881548   5.269   3.145  11.383
  1188G11  C0G781549   5.289   3.199  11.246
  1188G11  H01I81550   5.298   3.306  11.243
  1188G11  O00I81551   5.302   3.125  11.135
  1188G11  C0G681552   5.306   2.990  11.154
  1188G11  H01J81553   5.283   2.923  11.073
  1188G11  C02D81554   5.320   2.932  11.284
  1188G11  C02C81555   5.352   2.796  11.297
  1188G11  C01781556   5.395   2.717  11.183
  1188G11  C01681557   5.417   2.578  11.200
  1188G11  O00181558   5.426   2.774  11.063
  1188G11  C01881559   5.463   2.695  10.956
  1188G11  C00981560   5.480   2.559  10.963
  1188G11  C00881561   5.526   2.473  10.858
  1188G11  C00781562   5.567   2.488  10.716
  1188G11  C00681563   5.591   2.611  10.659
  1188G11  C00581564   5.641   2.640  10.526
  1188G11  C00481565   5.721   2.554  10.438
  1188G11  C00381566   5.780   2.419  10.460
  1188G11  C00281567   5.878   2.367  10.379
  1188G11  C00P81568   5.945   2.246  10.405
  1188G11  C00O81569   6.052   2.202  10.320
  1188G11  C00N81570   6.133   2.093  10.351
  1188G11  C01081571   6.235   2.043  10.268
  1188G11  C01181572   6.317   1.931  10.299
  1188G11  C01Q81573   6.419   1.886  10.210
  1188G11  C01U81574   6.458   1.962  10.100
  1188G11  C01281575   6.377   2.072  10.072
  1188G11  H00081576   6.401   2.135   9.987
  1188G11  C01V81577   6.576   1.923  10.039
  1188G11  H00781578   6.625   1.981   9.963
  1188G11  O00581579   6.623   1.796  10.051
  1188G11  C01W81580   6.605   1.733  10.169
  1188G11  C03181581   6.690   1.628  10.207
  1188G11  C03281582   6.677   1.573  10.332
  1188G11  H00A81583   6.751   1.497  10.353
  1188G11  C03381584   6.578   1.622  10.419
  1188G11  H00B81585   6.580   1.587  10.522
  1188G11  C01O81586   6.479   1.708  10.377
  1188G11  C01N81587   6.369   1.746  10.450
  1188G11  C01M81588   6.334   1.670  10.573
  1188G11  C01L81589   6.369   1.556  10.662
  1188G11  C01K81590   6.286   1.560  10.768
  1188G11  C01Y81591   6.292   1.498  10.894
  1188G11  C02I81592   6.403   1.417  10.912
  1188G11  C02N81593   6.420   1.368  11.042
  1188G11  C02M81594   6.543   1.300  11.066
  1188G11  C02L81595   6.628   1.270  10.957
  1188G11  C02K81596   6.594   1.302  10.828
  1188G11  C02U81597   6.669   1.249  10.720
  1188G11  C02V81598   6.795   1.183  10.739
  1188G11  C03H81599   6.874   1.148  10.625
  1188G11  H00C81600   6.859   1.173  10.521
  1188G11  C02W81601   6.612   1.261  10.594
  1188G11  C02X81602   6.512   1.356  10.574
  1188G11  C02Y81603   6.484   1.346  10.434
  1188G11  H00881604   6.425   1.414  10.375
  1188G11  C02Z81605   6.562   1.239  10.372
  1188G11  O00481606   6.572   1.214  10.251
  1188G11  O00381607   6.642   1.188  10.478
  1188G11  C02J81608   6.484   1.389  10.800
  1188G11  C01Z81609   6.191   1.530  10.988
  1188G11  C02081610   6.098   1.628  10.959
  1188G11  C01I81611   6.095   1.694  10.836
  1188G11  C01H81612   6.026   1.803  10.804
  1188G11  C00K81613   6.053   1.878  10.693
  1188G11  C01S81614   6.155   1.846  10.611
  1188G11  C01481615   6.184   1.911  10.496
  1188G11  C00J81616   5.982   1.994  10.667
  1188G11  C00I81617   5.884   2.030  10.754
  1188G11  C00H81618   5.869   1.963  10.877
  1188G11  C00G81619   5.776   2.008  10.969
  1188G11  C00S81620   5.806   2.139  10.723
  1188G11  C00T81621   5.712   2.177  10.817
  1188G11  C00U81622   5.632   2.290  10.790
  1188G11  C00R81623   5.827   2.219  10.604
  1188G11  C00L81624   6.006   2.068  10.547
  1188G11  C02881625   5.941   1.848  10.901
  1188G11  C02381626   5.937   1.785  11.024
  1188G11  C02481627   5.863   1.844  11.125
  1188G11  C02181628   6.009   1.671  11.051
  1188G11  C02281629   6.013   1.622  11.179
  1188G11  C02H81630   5.946   1.688  11.283
  1188G11  C03081631   5.971   1.655  11.418
  1188G11  C03481632   6.068   1.561  11.446
  1188G11  C02P81633   6.110   1.528  11.206
  1188G11  C02B81634   6.202   1.478  11.112
  1188G11  C01J81635   6.193   1.657  10.749
  1188G11  C01X81636   6.447   1.432  10.668
  1188G11  C01T81637   6.225   1.731  10.640
  1188G11  H00981638   6.771   1.615  10.137
  1188G11  C01P81639   6.495   1.773  10.252
  1188G11  C01R81640   6.289   1.860  10.417
  1188G11  C00Z81641   6.266   2.116  10.151
  1188G11  O00081642   6.189   2.233  10.118
  1188G11  C00M81643   6.111   2.026  10.464
  1188G11  C00Y81644   6.088   2.273  10.203
  1188G11  C01381645   6.013   2.388  10.178
  1188G11  H00181646   6.039   2.437  10.085
  1188G11  C00Q81647   5.928   2.179  10.518
  1188G11  C00181648   5.911   2.435  10.262
  1188G11  C00081649   5.842   2.559  10.228
  1188G11  H00681650   5.853   2.611  10.134
  1188G11  C00W81651   5.756   2.343  10.577
  1188G11  C01G81652   5.744   2.614  10.306
  1188G11  H00581653   5.690   2.701  10.272
  1188G11  C01C81654   5.614   2.773  10.492
  1188G11  H00281655   5.624   2.831  10.402
  1188G11  C01B81656   5.550   2.828  10.607
  1188G11  C01D81657   5.504   2.965  10.625
  1188G11  H00381658   5.509   3.042  10.549
  1188G11  C01E81659   5.458   2.993  10.751
  1188G11  H00481660   5.432   3.097  10.764
  1188G11  O00281661   5.455   2.907  10.858
  1188G11  C01A81662   5.536   2.733  10.713
  1188G11  C00V81663   5.654   2.372  10.679
  1188G11  C01981664   5.485   2.774  10.838
  1188G11  C02E81665   5.346   2.739  11.422
  1188G11  C0FX81666   5.295   2.811  11.530
  1188G11  C0FW81667   5.267   2.743  11.650
  1188G11  C0GB81668   5.271   2.946  11.518
  1188G11  C0G381669   5.378   2.607  11.441
  1188G11  C07H81670   5.375   2.547  11.570
  1188G11  C0GC81671   5.293   3.007  11.395
  1188G11  C0G281672   5.221   3.020  11.622
  1188G11  C0G181673   5.190   2.959  11.743
  1188G11  C0FB81674   5.048   3.042  12.058
  1188G11  C0F281675   5.147   2.780  12.110
  1188G11  C0FY81676   5.220   2.821  11.757
  1188G11  C0F581677   5.252   2.583  12.033
  1188G11  C0FV81678   5.320   2.619  11.674
  1188G11  C07981679   5.371   2.389  11.953
  1188G11  C07A81680   5.500   2.195  11.875
  1188G11  C06Y81681   5.636   2.066  11.675
  1188G11  C07D81682   5.426   2.423  11.596
  1188G11  C01F81683   5.421   2.528  11.332
  1188G11  C00A81684   5.464   2.499  11.094
  1188G11  C00X81685   5.549   2.342  10.891
  1188G11  C00F81686   5.702   2.122  10.946
  1188G11  C02981687   5.579   2.203  11.279
  1188G11  C02581688   5.786   1.957  11.100
  1188G11  C06U81689   5.664   2.042  11.438
  1188G11  C02A81690   5.868   1.795  11.256
  1188G11  C05Y81691   5.920   1.727  11.520
  1188G11  C05Z81692   5.967   1.701  11.650
  1188G11  C06081693   6.068   1.607  11.679
  1188G11  C06281694   6.126   1.597  11.806
  1188G11  C06T81695   5.692   2.001  11.571
  1188G11  C06A81696   5.907   1.766  11.757
  1188G11  C06Z81697   5.647   2.020  11.801
  1188G11  C06Q81698   5.719   1.963  12.064
  1188G11  C06881699   5.952   1.745  11.888
  1188G11  C06781700   6.071   1.669  11.910
  1188G11  C06381701   6.244   1.682  12.292
  1188G11  C06C81702   6.299   1.703  12.417
  1188G11  C06D81703   6.425   1.651  12.448
  1188G11  C06E81704   6.501   1.674  12.567
  1188G11  C07Q81705   6.450   1.757  12.657
  1188G11  C07P81706   6.320   1.811  12.637
  1188G11  C07T81707   6.261   1.887  12.734
  1188G11  C07U81708   6.140   1.949  12.712
  1188G11  C07V81709   6.086   2.033  12.812
  1188G11  C08481710   6.164   2.065  12.921
  1188G11  C08C81711   6.295   2.015  12.933
  1188G11  C08B81712   6.377   2.064  13.032
  1188G11  C08A81713   6.506   2.015  13.041
  1188G11  C08981714   6.565   1.924  12.958
  1188G11  C08881715   6.702   1.883  12.971
  1188G11  C08781716   6.754   1.795  12.876
  1188G11  C08681717   6.667   1.747  12.776
  1188G11  C08X81718   6.785   1.939  13.066
  1188G11  C08T81719   6.726   2.055  13.148
  1188G11  C08D81720   6.476   1.874  12.857
  1188G11  C08U81721   6.589   2.076  13.131
  1188G11  C08V81722   6.554   2.188  13.204
  1188G11  C0CY81723   6.420   2.230  13.203
  1188G11  C0CX81724   6.392   2.339  13.275
  1188G11  C0CW81725   6.264   2.389  13.276
  1188G11  C0CV81726   6.170   2.323  13.195
  1188G11  C0D481727   6.207   2.213  13.111
  1188G11  C0CU81728   6.042   2.376  13.179
  1188G11  C0CT81729   6.001   2.484  13.257
  1188G11  C0CS81730   6.096   2.549  13.336
  1188G11  C0D681731   5.967   2.324  13.085
  1188G11  C0EC81732   6.000   2.223  12.996
  1188G11  C07X81733   5.921   2.187  12.883
  1188G11  C0DL81734   5.840   2.378  13.068
  1188G11  C0DK81735   5.763   2.340  12.957
  1188G11  C0DN81736   5.651   2.409  12.975
  1188G11  C0D881737   5.786   2.475  13.151
  1188G11  C08W81738   6.656   2.238  13.280
  1188G11  C0CQ81739   6.637   2.367  13.346
  1188G11  C09381740   6.336   2.163  13.121
  1188G11  C09281741   6.120   2.164  13.012
  1188G11  C08581742   6.342   1.919  12.843
  1188G11  C07S81743   6.529   1.792  12.763
  1188G11  C06F81744   6.628   1.619  12.579
  1188G11  C07O81745   6.246   1.782  12.518
  1188G11  C07N81746   6.122   1.842  12.494
  1188G11  C05D81747   6.476   1.571  12.352
  1188G11  C05C81748   6.592   1.503  12.377
  1188G11  C05N81749   6.614   1.419  12.272
  1188G11  C05M81750   6.423   1.423  11.955
  1188G11  C05I81751   6.247   1.516  11.825
  1188G11  C06181752   6.116   1.538  11.571
  1188G11  C02Q81753   6.124   1.497  11.337
  1188G11  C02O81754   6.315   1.398  11.137
  1188G11  C03Q81755   6.382   1.322  11.481
  1188G11  C03O81756   6.609   1.250  11.564
  1188G11  C03L81757   6.883   1.131  11.379
  1188G11  C02S81758   6.587   1.256  11.194
  1188G11  C02T81759   6.744   1.189  10.976
  1188G11  C03K81760   6.970   1.092  11.265
  1188G11  C03I81761   6.828   1.150  10.870
  1188G11  C03G81762   6.988   1.065  10.648
  1188G11  H00D81763   7.043   1.036  10.560
  1188G11  C03J81764   7.120   0.993  11.037
  1188G11  C03W81765   7.396   0.922  11.054
  1188G11  C04I81766   7.404   0.980  11.282
  1188G11  C04K81767   7.516   1.024  11.529
  1188G11  C04N81768   7.556   1.073  11.652
  1188G11  C04X81769   7.519   1.160  11.881
  1188G11  C05081770   7.478   1.251  12.108
  1188G11  C05W81771   7.208   1.189  12.066
  1188G11  C05S81772   7.243   1.432  12.466
  1188G11  C05R81773   7.009   1.267  12.280
  1188G11  C05O81774   6.736   1.355  12.274
  1188G11  C05B81775   6.670   1.531  12.487
  1188G11  C05A81776   7.017   1.465  12.561
  1188G11  C07R81777   6.715   1.659  12.681
  1188G11  C08N81778   6.891   1.765  12.874
  1188G11  C08M81779   6.976   1.823  12.976
  1188G11  C08L81780   7.114   1.789  12.970
  1188G11  C09181781   7.157   1.515  12.556
  1188G11  C09K81782   7.426   1.716  12.654
  1188G11  H00M81783   7.423   1.768  12.559
  1188G11  C08K81784   7.164   1.703  12.870
  1188G11  C09J81785   7.498   1.761  12.770
  1188G11  C09I81786   7.581   1.869  12.803
  1188G11  C09L81787   7.708   1.909  12.746
  1188G11  H00N81788   7.751   1.859  12.660
  1188G11  C09Q81789   7.775   2.011  12.811
  1188G11  H00O81790   7.873   2.040  12.776
  1188G11  O00B81791   7.727   2.081  12.915
  1188G11  C09G81792   7.610   2.044  12.978
  1188G11  C09F81793   7.570   2.122  13.090
  1188G11  O00A81794   7.653   2.231  13.109
  1188G11  C09P81795   7.641   2.304  13.220
  1188G11  H00P81796   7.734   2.299  13.274
  1188G11  C09O81797   7.512   2.321  13.285
  1188G11  C09D81798   7.414   2.216  13.261
  1188G11  C09C81799   7.280   2.207  13.316
  1188G11  C09N81800   7.190   2.298  13.378
  1188G11  C09T81801   7.218   2.439  13.393
  1188G11  C09S81802   7.354   2.476  13.418
  1188G11  C0CP81803   7.337   2.564  13.520
  1188G11  C0CN81804   7.205   2.598  13.555
  1188G11  C0CO81805   7.182   2.691  13.658
  1188G11  H01481806   7.079   2.714  13.677
  1188G11  C0CZ81807   7.299   2.735  13.724
  1188G11  H01581808   7.297   2.808  13.804
  1188G11  C0D081809   7.435   2.705  13.685
  1188G11  C0G581810   7.559   2.757  13.751
  1188G11  H01F81811   7.554   2.815  13.842
  1188G11  C0G481812   7.682   2.719  13.703
  1188G11  H01G81813   7.771   2.762  13.746
  1188G11  O00H81814   7.694   2.642  13.593
  1188G11  C0D281815   7.590   2.586  13.534
  1188G11  C09V81816   7.598   2.499  13.425
  1188G11  H00Q81817   7.698   2.463  13.408
  1188G11  C0D181818   7.457   2.615  13.583
  1188G11  C09R81819   7.485   2.433  13.373
  1188G11  C09H81820   7.550   1.928  12.928
  1188G11  C09E81821   7.447   2.113  13.163
  1188G11  C09B81822   7.202   2.092  13.303
  1188G11  C08Z81823   7.200   1.862  13.055
  1188G11  C08O81824   6.916   1.907  13.075
  1188G11  C09A81825   7.076   2.104  13.359
  1188G11  C08S81826   6.764   2.158  13.240
  1188G11  C09981827   7.066   2.236  13.409
  1188G11  C09U81828   7.119   2.518  13.466
  1188G11  C0BO81829   6.758   2.805  13.506
  1188G11  C0CL81830   6.741   2.450  13.400
  1188G11  C0D381831   6.497   2.406  13.342
  1188G11  C0D581832   6.225   2.503  13.344
  1188G11  C0BR81833   6.525   2.729  13.513
  1188G11  C0BQ81834   6.626   2.826  13.540
  1188G11  C0BL81835   6.806   3.039  13.553
  1188G11  C0AF81836   6.738   3.269  13.673
  1188G11  C0BH81837   6.424   3.084  13.699
  1188G11  C0BG81838   6.286   3.122  13.723
  1188G11  C0BD81839   6.353   3.319  13.840
  1188G11  C0AG81840   6.695   3.379  13.740
  1188G11  C0AI81841   6.736   3.614  13.756
  1188G11  C0AV81842   6.643   3.856  13.775
  1188G11  C0BB81843   6.396   3.666  13.963
  1188G11  O00C81844   6.434   3.986  13.844
  1188G11  C0BC81845   6.274   3.703  14.020
  1188G11  C0B981846   6.321   3.445  13.897
  1188G11  O00E81847   5.957   3.420  13.916
  1188G11  C0CA81848   5.857   3.343  13.872
  1188G11  O00F81849   5.743   3.385  13.891
  1188G11  C0BF81850   6.249   3.238  13.789
  1188G11  C0C581851   5.890   3.222  13.798
  1188G11  C0C481852   5.785   3.141  13.750
  1188G11  H01181853   5.682   3.163  13.776
  1188G11  C0C881854   6.186   3.036  13.677
  1188G11  C0C281855   5.820   3.020  13.679
  1188G11  C0C381856   5.724   2.937  13.614
  1188G11  C0DY81857   5.586   2.946  13.619
  1188G11  H01681858   5.517   3.001  13.681
  1188G11  C0DX81859   5.541   2.853  13.517
  1188G11  C0DW81860   5.405   2.861  13.473
  1188G11  C0BY81861   6.123   2.842  13.555
  1188G11  C0DB81862   5.763   2.838  13.521
  1188G11  C0CC81863   6.057   2.656  13.411
  1188G11  C0D781864   5.871   2.531  13.253
  1188G11  C0DZ81865   5.653   2.781  13.453
  1188G11  C0DM81866   5.655   2.493  13.096
  1188G11  C0DQ81867   5.441   2.745  13.237
  1188G11  C0DV81868   5.376   2.829  13.337
  1188G11  C0E081869   5.287   2.939  13.516
  1188G11  C0FO81870   4.961   2.911  13.389
  1188G11  C0E381871   5.206   2.928  13.634
  1188G11  H01781872   5.232   2.884  13.729
  1188G11  C0GV81873   4.881   2.858  13.493
  1188G11  C0ES81874   4.950   2.850  13.258
  1188G11  C0GQ81875   4.636   2.649  13.310
  1188G11  C0FJ81876   4.662   2.609  12.940
  1188G11  C0ED81877   4.899   2.754  12.991
  1188G11  C0ER81878   4.907   2.854  12.648
  1188G11  C0EP81879   5.092   2.724  12.601
  1188G11  C0E681880   5.155   2.745  12.978
  1188G11  C0DE81881   5.380   2.550  12.921
  1188G11  C0EA81882   5.273   2.551  12.548
  1188G11  C0DF81883   5.428   2.431  12.867
  1188G11  C08081884   5.493   2.291  12.546
  1188G11  C0DO81885   5.562   2.386  12.875
  1188G11  C0DJ81886   5.803   2.250  12.858
  1188G11  C07K81887   5.707   2.123  12.525
  1188G11  C07W81888   5.961   2.093  12.787
  1188G11  C08381889   6.064   1.920  12.598
  1188G11  C07J81890   5.759   2.036  12.426
  1188G11  C06O81891   5.879   1.877  12.223
  1188G11  C06M81892   6.062   1.817  12.370
  1198G11  C07181893   8.502   5.352  10.817
  1198G11  C07L81894   8.460   5.410  10.936
  1198G11  C07M81895   8.424   5.332  11.044
  1198G11  C07Y81896   8.370   5.389  11.162
  1198G11  C08181897   8.359   5.532  11.176
  1198G11  C08281898   8.287   5.581  11.290
  1198G11  C0DI81899   8.241   5.723  11.320
  1198G11  C0DH81900   8.261   5.845  11.253
  1198G11  C0DG81901   8.194   5.952  11.326
  1198G11  C0E981902   8.231   6.090  11.352
  1198G11  C0E881903   8.170   6.113  11.491
  1198G11  C0E781904   8.111   6.237  11.543
  1198G11  C0EB81905   8.104   6.354  11.465
  1198G11  C0EF81906   8.025   6.472  11.490
  1198G11  C0EE81907   7.911   6.495  11.569
  1198G11  C0FD81908   7.803   6.571  11.517
  1198G11  C0FE81909   7.783   6.598  11.377
  1198G11  H01B81910   7.857   6.567  11.305
  1198G11  C0FF81911   7.670   6.664  11.333
  1198G11  H01A81912   7.649   6.691  11.230
  1198G11  C0FG81913   7.579   6.707  11.425
  1198G11  H01881914   7.495   6.763  11.387
  1198G11  C0FH81915   7.594   6.694  11.561
  1198G11  C0FI81916   7.511   6.755  11.662
  1198G11  H01981917   7.440   6.831  11.633
  1198G11  O00K81918   7.523   6.737  11.799
  1198G11  C0FL81919   7.632   6.658  11.839
  1198G11  C0FK81920   7.721   6.599  11.743
  1198G11  C0FM81921   7.834   6.518  11.795
  1198G11  C0FN81922   7.844   6.503  11.936
  1198G11  C0FP81923   7.749   6.557  12.024
  1198G11  C0GO81924   7.750   6.531  12.160
  1198G11  C0GN81925   7.644   6.557  12.243
  1198G11  C0GR81926   7.535   6.630  12.191
  1198G11  C0GS81927   7.423   6.663  12.270
  1198G11  H01Q81928   7.340   6.714  12.224
  1198G11  C0GT81929   7.423   6.614  12.404
  1198G11  H01O81930   7.337   6.638  12.465
  1198G11  C0GU81931   7.529   6.535  12.454
  1198G11  H01P81932   7.518   6.516  12.560
  1198G11  O00L81933   7.535   6.663  12.060
  1198G11  C0GM81934   7.643   6.506  12.376
  1198G11  C0GL81935   7.754   6.429  12.418
  1198G11  H01R81936   7.759   6.382  12.515
  1198G11  C0GK81937   7.860   6.405  12.330
  1198G11  C0GP81938   7.971   6.312  12.327
  1198G11  C0E281939   8.052   6.348  12.215
  1198G11  C0E181940   8.117   6.228  12.169
  1198G11  C0DU81941   8.118   6.171  12.034
  1198G11  C0DT81942   8.093   6.238  11.917
  1198G11  C0E481943   8.025   6.353  11.897
  1198G11  C0E581944   8.004   6.358  11.761
  1198G11  C0DS81945   8.110   6.165  11.796
  1198G11  C0DR81946   8.127   6.026  11.804
  1198G11  C0DD81947   8.133   5.935  11.700
  1198G11  C0DC81948   8.145   5.799  11.761
  1198G11  C0DP81949   8.144   5.809  11.906
  1198G11  C0DA81950   8.147   5.697  12.006
  1198G11  C0D981951   8.173   5.544  11.992
  1198G11  C0CR81952   8.187   5.460  12.108
  1198G11  C0C081953   8.175   5.510  12.235
  1198G11  C0BZ81954   8.192   5.437  12.355
  1198G11  C0C181955   8.197   5.500  12.478
  1198G11  C0C781956   8.210   5.429  12.592
  1198G11  C0C681957   8.214   5.493  12.719
  1198G11  C0C981958   8.216   5.414  12.838
  1198G11  C0B881959   8.228   5.481  12.959
  1198G11  C0B781960   8.232   5.413  13.083
  1198G11  C0B681961   8.259   5.460  13.217
  1198G11  C0B581962   8.364   5.554  13.241
  1198G11  H00Z81963   8.406   5.619  13.166
  1198G11  C0B481964   8.425   5.517  13.368
  1198G11  H01081965   8.519   5.549  13.409
  1198G11  C0B381966   8.354   5.406  13.424
  1198G11  C0AP81967   8.383   5.280  13.490
  1198G11  C0AQ81968   8.300   5.193  13.420
  1198G11  C0AR81969   8.335   5.055  13.413
  1198G11  C0AS81970   8.292   4.992  13.298
  1198G11  C0AT81971   8.243   5.049  13.183
  1198G11  C0BA81972   8.215   5.187  13.184
  1198G11  C0AU81973   8.237   4.987  13.058
  1198G11  C0BE81974   8.226   5.066  12.941
  1198G11  C0BI81975   8.234   5.004  12.817
  1198G11  C0BJ81976   8.274   4.871  12.811
  1198G11  C0BK81977   8.307   4.816  12.685
  1198G11  C0BW81978   8.300   4.888  12.569
  1198G11  C0BV81979   8.266   5.017  12.574
  1198G11  C0BU81980   8.250   5.091  12.459
  1198G11  C0BX81981   8.218   5.229  12.465
  1198G11  C0BT81982   8.279   5.033  12.332
  1198G11  C0CD81983   8.259   5.108  12.220
  1198G11  C0CB81984   8.229   5.244  12.224
  1198G11  C0CE81985   8.276   5.049  12.095
  1198G11  C0CK81986   8.315   4.912  12.089
  1198G11  C0BS81987   8.344   4.837  12.206
  1198G11  C0CJ81988   8.396   4.704  12.201
  1198G11  C0BP81989   8.413   4.632  12.321
  1198G11  C0CI81990   8.469   4.503  12.318
  1198G11  C0CH81991   8.467   4.436  12.440
  1198G11  H01281992   8.500   4.333  12.434
  1198G11  C0BN81993   8.433   4.494  12.561
  1198G11  C0CG81994   8.454   4.422  12.686
  1198G11  C0CF81995   8.500   4.286  12.685
  1198G11  H01381996   8.527   4.228  12.598
  1198G11  O00G81997   8.496   4.208  12.796
  1198G11  C0AA81998   8.493   4.272  12.916
  1198G11  C0A981999   8.497   4.190  13.028
  1198G11  H00U82000   8.507   4.084  13.008
  1198G11  C0A882001   8.499   4.245  13.158
  1198G11  H00V82002   8.515   4.178  13.240
  1198G11  C0A782003   8.492   4.391  13.168
  1198G11  C0A682004   8.456   4.470  13.049
  1198G11  C0A582005   8.397   4.601  13.047
  1198G11  C0A482006   8.380   4.669  13.172
  1198G11  C0A382007   8.434   4.658  13.307
  1198G11  C0A282008   8.536   4.568  13.346
  1198G11  C0A182009   8.588   4.569  13.473
  1198G11  C0A082010   8.624   4.676  13.568
  1198G11  C09Z82011   8.710   4.634  13.670
  1198G11  C09Y82012   8.784   4.734  13.737
  1198G11  H00Y82013   8.857   4.702  13.809
  1198G11  C09X82014   8.772   4.873  13.704
  1198G11  C09W82015   8.869   4.966  13.752
  1198G11  H00R82016   8.957   4.928  13.801
  1198G11  C0AX82017   8.866   5.103  13.717
  1198G11  H00S82018   8.943   5.175  13.740
  1198G11  C0AW82019   8.740   5.145  13.659
  1198G11  H00T82020   8.717   5.249  13.645
  1198G11  C0AN82021   8.646   5.052  13.608
  1198G11  C0AO82022   8.523   5.096  13.548
  1198G11  C0AM82023   8.670   4.918  13.623
  1198G11  C0B282024   8.738   4.506  13.712
  1198G11  O00D82025   8.806   4.477  13.810
  1198G11  C0B182026   8.689   4.400  13.631
  1198G11  H00W82027   8.699   4.299  13.669
  1198G11  C0AL82028   8.590   4.815  13.554
  1198G11  C0AK82029   8.485   4.860  13.472
  1198G11  C0B082030   8.621   4.434  13.509
  1198G11  C0AZ82031   8.583   4.351  13.398
  1198G11  H00X82032   8.591   4.244  13.411
  1198G11  C0AJ82033   8.418   4.783  13.372
  1198G11  C0AH82034   8.304   4.786  13.169
  1198G11  C0AE82035   8.356   4.668  12.927
  1198G11  C0AD82036   8.383   4.610  12.805
  1198G11  C0AY82037   8.529   4.435  13.296
  1198G11  C0AB82038   8.461   4.407  12.927
  1198G11  C0AC82039   8.429   4.479  12.809
  1198G11  C0BM82040   8.386   4.626  12.563
  1198G11  C0CM82041   8.543   4.460  12.204
  1198G11  C09M82042   8.488   4.503  12.076
  1198G11  C09882043   8.493   4.410  11.965
  1198G11  C08R82044   8.470   4.416  11.823
  1198G11  C08Q82045   8.493   4.300  11.752
  1198G11  C08P82046   8.547   4.272  11.623
  1198G11  C08Y82047   8.613   4.147  11.616
  1198G11  C09782048   8.642   4.069  11.729
  1198G11  C09682049   8.759   3.998  11.715
  1198G11  C09082050   8.781   3.997  11.573
  1198G11  C09582051   8.901   3.948  11.504
  1198G11  C09482052   8.918   3.929  11.364
  1198G11  C08J82053   8.848   4.004  11.262
  1198G11  C08I82054   8.943   4.043  11.170
  1198G11  C08H82055   8.891   4.155  11.093
  1198G11  C08G82056   8.791   4.216  11.171
  1198G11  C08F82057   8.697   4.324  11.153
  1198G11  C08E82058   8.692   4.388  11.027
  1198G11  C05982059   8.721   4.336  10.899
  1198G11  C05882060   8.697   4.413  10.783
  1198G11  C05782061   8.740   4.377  10.657
  1198G11  C05682062   8.806   4.248  10.649
  1198G11  C05582063   8.802   4.157  10.748
  1198G11  C05482064   8.909   4.067  10.723
  1198G11  C05382065   8.971   4.103  10.593
  1198G11  C05282066   9.094   4.059  10.540
  1198G11  C05182067   9.184   3.972  10.622
  1198G11  C05U82068   9.163   3.924  10.757
  1198G11  C05T82069   9.074   3.962  10.869
  1198G11  C06K82070   9.094   3.854  10.966
  1198G11  H00J82071   9.031   3.835  11.052
  1198G11  C06L82072   9.213   3.783  10.942
  1198G11  H00I82073   9.271   3.718  11.006
  1198G11  C05V82074   9.258   3.835  10.812
  1198G11  C06J82075   9.371   3.797  10.747
  1198G11  H00K82076   9.439   3.728  10.794
  1198G11  C05X82077   9.407   3.853  10.623
  1198G11  C06I82078   9.531   3.814  10.559
  1198G11  H00L82079   9.589   3.738  10.609
  1198G11  C04Z82080   9.568   3.879  10.440
  1198G11  C06H82081   9.690   3.848  10.379
  1198G11  H00H82082   9.757   3.780  10.430
  1198G11  C04Y82083   9.727   3.902  10.251
  1198G11  C06G82084   9.855   3.862  10.197
  1198G11  O00982085   9.938   3.792  10.252
  1198G11  O00882086   9.872   3.900  10.061
  1198G11  C04P82087   9.794   3.995  10.000
  1198G11  C04J82088   9.820   4.056   9.870
  1198G11  C04Q82089   9.915   4.025   9.772
  1198G11  H00E82090   9.978   3.943   9.803
  1198G11  C04M82091   9.936   4.093   9.649
  1198G11  C04R82092  10.034   4.064   9.548
  1198G11  H00F82093  10.096   3.976   9.562
  1198G11  C04S82094  10.033   4.132   9.430
  1198G11  H00G82095  10.100   4.101   9.352
  1198G11  O00782096   9.955   4.243   9.410
  1198G11  C03V82097   9.860   4.272   9.508
  1198G11  C03U82098   9.784   4.383   9.482
  1198G11  O00682099   9.821   4.463   9.380
  1198G11  C03F82100   9.776   4.589   9.382
  1198G11  C03E82101   9.673   4.637   9.461
  1198G11  C03D82102   9.623   4.548   9.557
  1198G11  C03C82103   9.519   4.586   9.641
  1198G11  C03B82104   9.477   4.718   9.622
  1198G11  C03A82105   9.368   4.759   9.697
  1198G11  C03982106   9.311   4.675   9.793
  1198G11  C03882107   9.205   4.761   9.850
  1198G11  C03782108   9.213   4.885   9.778
  1198G11  C03682109   9.133   4.987   9.805
  1198G11  C02R82110   9.131   5.111   9.743
  1198G11  C03582111   9.022   5.169   9.810
  1198G11  C03R82112   8.963   5.092   9.905
  1198G11  C03S82113   8.893   5.132  10.023
  1198G11  C04982114   8.868   5.038  10.122
  1198G11  C04882115   8.923   4.910  10.093
  1198G11  C03P82116   9.014   4.868   9.988
  1198G11  C04782117   8.874   4.813  10.185
  1198G11  C04682118   8.903   4.680  10.185
  1198G11  C04582119   8.992   4.600  10.116
  1198G11  C03T82120   9.078   4.628  10.006
  1198G11  C04482121   9.166   4.514   9.987
  1198G11  C04382122   9.107   4.410  10.065
  1198G11  C04282123   9.196   4.306  10.086
  1198G11  C04182124   9.303   4.348  10.000
  1198G11  C04082125   9.423   4.277   9.982
  1198G11  C03Z82126   9.519   4.292   9.876
  1198G11  C04H82127   9.610   4.191   9.900
  1198G11  C04G82128   9.590   4.129  10.018
  1198G11  C03N82129   9.539   4.374   9.759
  1198G11  C03Y82130   9.650   4.342   9.680
  1198G11  C03X82131   9.739   4.236   9.707
  1198G11  C04F82132   9.473   4.175  10.073
  1198G11  C04E82133   9.426   4.109  10.188
  1198G11  C04O82134   9.519   4.023  10.253
  1198G11  C04D82135   9.299   4.128  10.244
  1198G11  C04V82136   9.266   4.058  10.362
  1198G11  C04W82137   9.359   3.991  10.439
  1198G11  C04C82138   9.190   4.211  10.196
  1198G11  C04L82139   9.092   4.198  10.306
  1198G11  C04U82140   8.959   4.266  10.311
  1198G11  C05Q82141   8.893   4.284  10.436
  1198G11  C05P82142   8.831   4.410  10.444
  1198G11  C04T82143   8.858   4.486  10.333
  1198G11  C04B82144   8.944   4.400  10.252
  1198G11  C03M82145   9.283   4.473   9.926
  1198G11  C04A82146   9.006   4.462  10.147
  1198G11  C05H82147   8.838   4.627  10.302
  1198G11  C05G82148   8.772   4.733  10.371
  1198G11  C05F82149   8.702   4.715  10.490
  1198G11  C05E82150   8.660   4.820  10.575
  1198G11  C05L82151   8.660   4.967  10.571
  1198G11  C05K82152   8.700   5.043  10.456
  1198G11  C05J82153   8.752   4.993  10.330
  1198G11  C06682154   8.685   5.183  10.469
  1198G11  C06582155   8.627   5.241  10.584
  1198G11  C06482156   8.593   5.163  10.697
  1198G11  C06N82157   8.615   5.378  10.602
  1198G11  C06982158   8.658   5.465  10.502
  1198G11  C06P82159   8.649   5.605  10.516
  1198G11  C06R82160   8.705   5.688  10.420
  1198G11  C06B82161   8.757   5.637  10.307
  1198G11  C06S82162   8.815   5.725  10.210
  1198G11  C02G82163   8.876   5.672  10.095
  1198G11  C02F82164   8.945   5.757  10.011
  1198G11  C02782165   8.951   5.894  10.037
  1198G11  C02682166   9.027   5.973   9.955
  1198G11  C00E82167   9.040   6.108   9.982
  1198G11  C00D82168   9.128   6.187   9.908
  1198G11  C00C82169   9.143   6.318   9.941
  1198G11  C00B82170   9.092   6.372  10.052
  1198G11  C01582171   9.002   6.295  10.127
  1198G11  C07F82172   8.946   6.355  10.239
  1198G11  C07E82173   8.867   6.274  10.315
  1198G11  C06W82174   8.844   6.135  10.291
  1198G11  C06V82175   8.906   6.079  10.177
  1198G11  C06X82176   8.776   6.049  10.378
  1198G11  C07B82177   8.730   6.105  10.493
  1198G11  C07C82178   8.743   6.241  10.523
  1198G11  C0FU82179   8.681   6.290  10.633
  1198G11  C0F782180   8.691   6.424  10.664
  1198G11  C0F682181   8.613   6.475  10.771
  1198G11  C0F882182   8.611   6.618  10.786
  1198G11  C0F982183   8.524   6.670  10.884
  1198G11  C0FA82184   8.527   6.809  10.905
  1198G11  C0FZ82185   8.613   6.887  10.829
  1198G11  C0G082186   8.613   7.024  10.846
  1198G11  C0GD82187   8.535   7.089  10.945
  1198G11  C0FC82188   8.464   7.003  11.034
  1198G11  C0GH82189   8.400   7.058  11.152
  1198G11  C0EY82190   8.322   6.976  11.237
  1198G11  C0EX82191   8.247   7.027  11.348
  1198G11  C0EW82192   8.171   6.942  11.424
  1198G11  C0FR82193   8.125   6.983  11.554
  1198G11  H01D82194   8.077   6.925  11.631
  1198G11  C0FS82195   8.147   7.117  11.591
  1198G11  H01C82196   8.115   7.152  11.688
  1198G11  C0GJ82197   8.195   7.204  11.494
  1198G11  H01N82198   8.183   7.310  11.515
  1198G11  C0EV82199   8.153   6.812  11.383
  1198G11  C0FT82200   8.068   6.726  11.457
  1198G11  H01E82201   7.997   6.757  11.532
  1198G11  C0EU82202   8.234   6.758  11.279
  1198G11  C0ET82203   8.246   6.618  11.263
  1198G11  C0EI82204   8.322   6.554  11.166
  1198G11  C0F182205   8.383   6.640  11.077
  1198G11  C0F082206   8.384   6.781  11.097
  1198G11  C0EH82207   8.335   6.410  11.166
  1198G11  C0EG82208   8.270   6.321  11.263
  1198G11  C0EJ82209   8.409   6.359  11.055
  1198G11  C0F382210   8.470   6.447  10.963
  1198G11  C0EK82211   8.412   6.222  11.043
  1198G11  C0EL82212   8.362   6.129  11.139
  1198G11  C0EM82213   8.391   5.991  11.106
  1198G11  C0EN82214   8.454   5.954  10.988
  1198G11  C07I82215   8.463   5.819  10.980
  1198G11  C07482216   8.507   5.762  10.865
  1198G11  C07382217   8.497   5.624  10.849
  1198G11  C07282218   8.553   5.568  10.733
  1198G11  C07582219   8.556   5.850  10.766
  1198G11  C07682220   8.555   5.988  10.787
  1198G11  C07882221   8.607   6.071  10.696
  1198G11  C07G82222   8.598   5.799  10.647
  1198G11  C07082223   8.647   5.882  10.553
  1198G11  C07Z82224   8.405   5.748  11.076
  1198G11  C07782225   8.501   6.042  10.898
  1198G11  C0EO82226   8.490   6.176  10.933
  1198G11  C0F482227   8.550   6.260  10.839
  1198G11  C0EQ82228   8.188   6.535  11.355
  1198G11  C0FQ82229   8.256   7.161  11.375
  1198G11  C0GI82230   8.332   7.243  11.289
  1198G11  H01L82231   8.354   7.347  11.311
  1198G11  C0EZ82232   8.312   6.841  11.204
  1198G11  C0GG82233   8.395   7.199  11.173
  1198G11  C0GF82234   8.468   7.278  11.081
  1198G11  H01M82235   8.475   7.381  11.111
  1198G11  C0GE82236   8.533   7.223  10.973
  1198G11  H01K82237   8.580   7.287  10.900
  1198G11  O00J82238   8.689   7.103  10.759
  1198G11  C0GA82239   8.785   7.053  10.688
  1198G11  C0G982240   8.880   7.135  10.627
  1198G11  H01H82241   8.874   7.241  10.649
  1198G11  C0G882242   8.968   7.083  10.529
  1198G11  C0G782243   9.066   7.160  10.461
  1198G11  H01I82244   9.077   7.266  10.483
  1198G11  O00I82245   9.152   7.106  10.371
  1198G11  C0G682246   9.143   6.969  10.344
  1198G11  H01J82247   9.230   6.925  10.298
  1198G11  C02D82248   9.046   6.886  10.404
  1198G11  C02C82249   9.031   6.751  10.361
  1198G11  C01782250   9.092   6.695  10.238
  1198G11  C01682251   9.061   6.564  10.196
  1198G11  O00182252   9.184   6.764  10.161
  1198G11  C01882253   9.257   6.711  10.055
  1198G11  C00982254   9.227   6.579  10.019
  1198G11  C00882255   9.285   6.513   9.902
  1198G11  C00782256   9.390   6.539   9.809
  1198G11  C00682257   9.485   6.640   9.834
  1198G11  C00582258   9.606   6.662   9.752
  1198G11  C00482259   9.670   6.570   9.663
  1198G11  C00382260   9.643   6.427   9.621
  1198G11  C00282261   9.741   6.356   9.543
  1198G11  C00P82262   9.720   6.221   9.510
  1198G11  C00O82263   9.819   6.145   9.441
  1198G11  C00N82264   9.794   6.015   9.398
  1198G11  C01082265   9.891   5.950   9.322
  1198G11  C01182266   9.865   5.819   9.273
  1198G11  C01Q82267   9.961   5.751   9.201
  1198G11  C01U82268  10.093   5.801   9.188
  1198G11  C01282269  10.115   5.932   9.238
  1198G11  H00082270  10.210   5.977   9.213
  1198G11  C01V82271  10.183   5.720   9.120
  1198G11  H00782272  10.282   5.762   9.108
  1198G11  O00582273  10.145   5.609   9.044
  1198G11  C01W82274  10.026   5.556   9.078
  1198G11  C03182275  10.006   5.431   9.024
  1198G11  C03282276   9.877   5.378   9.027
  1198G11  H00A82277   9.841   5.288   8.978
  1198G11  C03382278   9.777   5.447   9.097
  1198G11  H00B82279   9.676   5.408   9.094
  1198G11  C01O82280   9.803   5.560   9.176
  1198G11  C01N82281   9.725   5.618   9.267
  1198G11  C01M82282   9.607   5.549   9.326
  1198G11  C01L82283   9.554   5.415   9.368
  1198G11  C01K82284   9.422   5.440   9.423
  1198G11  C01Y82285   9.351   5.343   9.497
  1198G11  C02I82286   9.406   5.217   9.508
  1198G11  C02N82287   9.337   5.132   9.596
  1198G11  C02M82288   9.377   4.993   9.599
  1198G11  C02L82289   9.488   4.949   9.533
  1198G11  C02K82290   9.565   5.044   9.456
  1198G11  C02U82291   9.680   4.995   9.386
  1198G11  C02V82292   9.707   4.860   9.380
  1198G11  C03H82293   9.809   4.809   9.300
  1198G11  H00C82294   9.860   4.878   9.234
  1198G11  C02W82295   9.772   5.089   9.341
  1198G11  C02X82296   9.735   5.223   9.341
  1198G11  C02Y82297   9.857   5.294   9.316
  1198G11  H00882298   9.881   5.398   9.334
  1198G11  C02Z82299   9.964   5.194   9.299
  1198G11  O00482300  10.083   5.208   9.287
  1198G11  O00382301   9.900   5.075   9.315
  1198G11  C02J82302   9.524   5.180   9.443
  1198G11  C01Z82303   9.255   5.403   9.578
  1198G11  C02082304   9.235   5.542   9.589
  1198G11  C01I82305   9.312   5.629   9.521
  1198G11  C01H82306   9.336   5.755   9.559
  1198G11  C00K82307   9.442   5.824   9.508
  1198G11  C01S82308   9.531   5.766   9.418
  1198G11  C01482309   9.653   5.823   9.387
  1198G11  C00J82310   9.472   5.945   9.551
  1198G11  C00I82311   9.378   6.014   9.631
  1198G11  C00H82312   9.272   5.939   9.689
  1198G11  C00G82313   9.196   5.997   9.785
  1198G11  C00S82314   9.401   6.145   9.671
  1198G11  C00T82315   9.304   6.202   9.748
  1198G11  C00U82316   9.314   6.338   9.769
  1198G11  C00R82317   9.510   6.220   9.624
  1198G11  C00L82318   9.579   6.020   9.506
  1198G11  C02882319   9.254   5.809   9.654
  1198G11  C02382320   9.163   5.731   9.723
  1198G11  C02482321   9.092   5.784   9.827
  1198G11  C02182322   9.162   5.597   9.692
  1198G11  C02282323   9.086   5.519   9.776
  1198G11  C02H82324   9.004   5.571   9.876
  1198G11  C03082325   8.940   5.487   9.965
  1198G11  C03482326   8.932   5.353   9.941
  1198G11  C02P82327   9.089   5.384   9.752
  1198G11  C02B82328   9.183   5.321   9.665
  1198G11  C01J82329   9.393   5.573   9.426
  1198G11  C01X82330   9.610   5.281   9.376
  1198G11  C01T82331   9.505   5.635   9.369
  1198G11  H00982332  10.089   5.390   8.969
  1198G11  C01P82333   9.929   5.619   9.159
  1198G11  C01R82334   9.748   5.753   9.309
  1198G11  C00Z82335  10.018   6.009   9.307
  1198G11  O00082336  10.044   6.137   9.350
  1198G11  C00M82337   9.678   5.957   9.429
  1198G11  C00Y82338   9.942   6.207   9.406
  1198G11  C01382339   9.960   6.337   9.444
  1198G11  H00182340  10.055   6.381   9.417
  1198G11  C00Q82341   9.603   6.155   9.545
  1198G11  C00182342   9.864   6.413   9.505
  1198G11  C00082343   9.880   6.546   9.536
  1198G11  H00682344   9.968   6.599   9.502
  1198G11  C00W82345   9.522   6.355   9.653
  1198G11  C01G82346   9.790   6.625   9.608
  1198G11  H00582347   9.821   6.727   9.627
  1198G11  C01C82348   9.640   6.803   9.774
  1198G11  H00282349   9.729   6.858   9.746
  1198G11  C01B82350   9.547   6.862   9.864
  1198G11  C01D82351   9.543   6.994   9.921
  1198G11  H00382352   9.614   7.073   9.902
  1198G11  C01E82353   9.454   7.016  10.020
  1198G11  H00482354   9.467   7.104  10.081
  1198G11  O00282355   9.369   6.922  10.068
  1198G11  C01A82356   9.460   6.758   9.909
  1198G11  C00V82357   9.417   6.419   9.735
  1198G11  C01982358   9.363   6.794  10.008
  1198G11  C02E82359   8.935   6.670  10.431
  1198G11  C0FX82360   8.855   6.721  10.536
  1198G11  C0FW82361   8.773   6.638  10.610
  1198G11  C0GB82362   8.865   6.860  10.564
  1198G11  C0G382363   8.918   6.534  10.396
  1198G11  C07H82364   8.836   6.454  10.472
  1198G11  C0GC82365   8.957   6.942  10.498
  1198G11  C0G282366   8.784   6.915  10.660
  1198G11  C0G182367   8.695   6.834  10.728
  1198G11  C0FB82368   8.460   6.862  11.013
  1198G11  C0F282369   8.461   6.588  10.976
  1198G11  C0FY82370   8.694   6.697  10.710
  1198G11  C0F582371   8.547   6.394  10.858
  1198G11  C0FV82372   8.764   6.508  10.583
  1198G11  C07982373   8.612   6.210  10.724
  1198G11  C07A82374   8.659   6.017  10.578
  1198G11  C06Y82375   8.761   5.912  10.344
  1198G11  C07D82376   8.813   6.325  10.434
  1198G11  C01F82377   8.976   6.486  10.275
  1198G11  C00A82378   9.121   6.509  10.084
  1198G11  C00X82379   9.238   6.390   9.870
  1198G11  C00F82380   9.204   6.127   9.812
  1198G11  C02982381   8.979   6.162  10.092
  1198G11  C02582382   9.107   5.918   9.855
  1198G11  C06U82383   8.889   5.945  10.148
  1198G11  C02A82384   9.013   5.705   9.904
  1198G11  C05Y82385   8.874   5.532  10.075
  1198G11  C05Z82386   8.815   5.448  10.167
  1198G11  C06082387   8.814   5.312  10.148
  1198G11  C06282388   8.770   5.216  10.248
  1198G11  C06T82389   8.819   5.860  10.234
  1198G11  C06A82390   8.756   5.498  10.287
  1198G11  C06Z82391   8.703   5.825  10.438
  1198G11  C06Q82392   8.601   5.658  10.634
  1198G11  C06882393   8.712   5.412  10.388
  1198G11  C06782394   8.723   5.267  10.370
  1198G11  C06382395   8.609   5.022  10.698
  1198G11  C06C82396   8.579   4.949  10.810
  1198G11  C06D82397   8.600   4.819  10.814
  1198G11  C06E82398   8.592   4.736  10.924
  1198G11  C07Q82399   8.558   4.794  11.041
  1198G11  C07P82400   8.520   4.930  11.040
  1198G11  C07T82401   8.462   4.984  11.150
  1198G11  C07U82402   8.423   5.113  11.147
  1198G11  C07V82403   8.369   5.169  11.264
  1198G11  C08482404   8.359   5.089  11.381
  1198G11  C08C82405   8.394   4.957  11.381
  1198G11  C08B82406   8.388   4.887  11.496
  1198G11  C08A82407   8.436   4.759  11.489
  1198G11  C08982408   8.482   4.696  11.376
  1198G11  C08882409   8.532   4.562  11.387
  1198G11  C08782410   8.591   4.504  11.269
  1198G11  C08682411   8.596   4.581  11.151
  1198G11  C08X82412   8.524   4.486  11.504
  1198G11  C08T82413   8.489   4.562  11.630
  1198G11  C08D82414   8.499   4.773  11.264
  1198G11  C08U82415   8.446   4.692  11.612
  1198G11  C08V82416   8.396   4.748  11.729
  1198G11  C0CY82417   8.351   4.877  11.733
  1198G11  C0CX82418   8.323   4.927  11.854
  1198G11  C0CW82419   8.283   5.058  11.861
  1198G11  C0CV82420   8.272   5.131  11.742
  1198G11  C0D482421   8.302   5.075  11.617
  1198G11  C0CU82422   8.245   5.268  11.746
  1198G11  C0CT82423   8.224   5.334  11.865
  1198G11  C0CS82424   8.235   5.260  11.981
  1198G11  C0D682425   8.247   5.332  11.623
  1198G11  C0EC82426   8.277   5.282  11.503
  1198G11  C07X82427   8.291   5.361  11.387
  1198G11  C0DL82428   8.208   5.466  11.633
  1198G11  C0DK82429   8.220   5.545  11.521
  1198G11  C0DN82430   8.187   5.671  11.557
  1198G11  C0D882431   8.192   5.542  11.747
  1198G11  C08W82432   8.421   4.662  11.833
  1198G11  C0CQ82433   8.393   4.719  11.966
  1198G11  C09382434   8.346   4.944  11.614
  1198G11  C09282435   8.310   5.149  11.496
  1198G11  C08582436   8.453   4.904  11.265
  1198G11  C07S82437   8.552   4.714  11.155
  1198G11  C06F82438   8.618   4.599  10.920
  1198G11  C07O82439   8.535   5.006  10.923
  1198G11  C07N82440   8.499   5.141  10.925
  1198G11  C05D82441   8.627   4.753  10.692
  1198G11  C05C82442   8.632   4.618  10.686
  1198G11  C05N82443   8.694   4.589  10.560
  1198G11  C05M82444   8.786   4.852  10.298
  1198G11  C05I82445   8.792   5.078  10.228
  1198G11  C06182446   8.875   5.264  10.035
  1198G11  C02Q82447   9.009   5.308   9.833
  1198G11  C02O82448   9.219   5.186   9.664
  1198G11  C03Q82449   9.038   4.976   9.905
  1198G11  C03O82450   9.096   4.751   9.955
  1198G11  C03L82451   9.356   4.546   9.824
  1198G11  C02S82452   9.316   4.893   9.685
  1198G11  C02T82453   9.532   4.816   9.537
  1198G11  C03K82454   9.470   4.500   9.743
  1198G11  C03I82455   9.638   4.772   9.462
  1198G11  C03G82456   9.842   4.672   9.296
  1198G11  H00D82457   9.923   4.642   9.231
  1198G11  C03J82458   9.681   4.422   9.572
  1198G11  C03W82459   9.844   4.198   9.624
  1198G11  C04I82460   9.730   4.158   9.824
  1198G11  C04K82461   9.677   4.035  10.067
  1198G11  C04N82462   9.642   3.990  10.186
  1198G11  C04X82463   9.479   3.961  10.374
  1198G11  C05082464   9.311   3.935  10.559
  1198G11  C05W82465   9.142   4.107  10.409
  1198G11  C05S82466   8.960   4.049  10.855
  1198G11  C05R82467   8.889   4.205  10.548
  1198G11  C05O82468   8.749   4.462  10.546
  1198G11  C05B82469   8.646   4.537  10.800
  1198G11  C05A82470   8.790   4.209  10.878
  1198G11  C07R82471   8.634   4.519  11.035
  1198G11  C08N82472   8.638   4.372  11.273
  1198G11  C08M82473   8.627   4.295  11.392
  1198G11  C08L82474   8.692   4.168  11.393
  1198G11  C09182475   8.882   4.135  10.952
  1198G11  C09K82476   9.077   4.023  11.225
  1198G11  H00M82477   9.166   4.075  11.191
  1198G11  C08K82478   8.766   4.124  11.279
  1198G11  C09J82479   9.060   3.941  11.339
  1198G11  C09I82480   9.119   3.924  11.465
  1198G11  C09L82481   9.253   3.897  11.492
  1198G11  H00N82482   9.329   3.877  11.418
  1198G11  C09Q82483   9.282   3.872  11.616
  1198G11  H00O82484   9.385   3.852  11.642
  1198G11  O00B82485   9.194   3.870  11.729
  1198G11  C09G82486   9.063   3.916  11.700
  1198G11  C09F82487   8.986   3.931  11.819
  1198G11  O00A82488   9.058   3.906  11.937
  1198G11  C09P82489   8.979   3.885  12.050
  1198G11  H00P82490   8.999   3.792  12.101
  1198G11  C09O82491   8.883   3.990  12.069
  1198G11  C09D82492   8.797   4.020  11.958
  1198G11  C09C82493   8.672   4.100  11.962
  1198G11  C09N82494   8.615   4.194  12.049
  1198G11  C09T82495   8.694   4.254  12.154
  1198G11  C09S82496   8.795   4.180  12.220
  1198G11  C0CP82497   8.816   4.252  12.337
  1198G11  C0CN82498   8.741   4.373  12.341
  1198G11  C0CO82499   8.769   4.463  12.448
  1198G11  H01482500   8.714   4.556  12.449
  1198G11  C0CZ82501   8.862   4.418  12.548
  1198G11  H01582502   8.880   4.481  12.633
  1198G11  C0D082503   8.927   4.289  12.541
  1198G11  C0G582504   9.024   4.241  12.639
  1198G11  H01F82505   9.058   4.300  12.723
  1198G11  C0G482506   9.085   4.126  12.622
  1198G11  H01G82507   9.156   4.087  12.693
  1198G11  O00H82508   9.062   4.033  12.516
  1198G11  C0D282509   8.970   4.080  12.427
  1198G11  C09V82510   8.950   4.007  12.306
  1198G11  H00Q82511   9.022   3.928  12.291
  1198G11  C0D182512   8.905   4.202  12.437
  1198G11  C09R82513   8.871   4.057  12.196
  1198G11  C09H82514   9.023   3.924  11.568
  1198G11  C09E82515   8.846   3.976  11.827
  1198G11  C09B82516   8.590   4.106  11.847
  1198G11  C08Z82517   8.693   4.099  11.517
  1198G11  C08O82518   8.569   4.352  11.510
  1198G11  C09A82519   8.488   4.201  11.854
  1198G11  C08S82520   8.469   4.540  11.769
  1198G11  C09982521   8.515   4.270  11.978
  1198G11  C09U82522   8.652   4.370  12.233
  1198G11  C0BO82523   8.381   4.693  12.444
  1198G11  C0CL82524   8.426   4.639  12.079
  1198G11  C0D382525   8.339   4.850  11.969
  1198G11  C0D582526   8.262   5.121  11.979
  1198G11  C0BR82527   8.323   4.902  12.330
  1198G11  C0BQ82528   8.336   4.827  12.446
  1198G11  C0BL82529   8.354   4.682  12.682
  1198G11  C0AF82530   8.301   4.797  12.927
  1198G11  C0BH82531   8.236   5.077  12.697
  1198G11  C0BG82532   8.228   5.215  12.703
  1198G11  C0BD82533   8.212   5.204  12.950
  1198G11  C0AG82534   8.274   4.858  13.046
  1198G11  C0AI82535   8.327   4.852  13.291
  1198G11  C0AV82536   8.443   5.001  13.487
  1198G11  C0BB82537   8.227   5.252  13.315
  1198G11  O00C82538   8.505   5.232  13.540
  1198G11  C0BC82539   8.240   5.388  13.337
  1198G11  C0B982540   8.209   5.271  13.074
  1198G11  O00E82541   8.233   5.617  12.963
  1198G11  C0CA82542   8.230   5.698  12.853
  1198G11  O00F82543   8.218   5.821  12.857
  1198G11  C0BF82544   8.217   5.275  12.831
  1198G11  C0C582545   8.216   5.626  12.732
  1198G11  C0C482546   8.204   5.704  12.616
  1198G11  H01182547   8.211   5.812  12.614
  1198G11  C0C882548   8.218   5.291  12.590
  1198G11  C0C282549   8.182   5.635  12.497
  1198G11  C0C382550   8.147   5.702  12.373
  1198G11  C0DY82551   8.117   5.833  12.354
  1198G11  H01682552   8.105   5.904  12.436
  1198G11  C0DX82553   8.104   5.857  12.217
  1198G11  C0DW82554   8.089   5.993  12.177
  1198G11  C0BY82555   8.211   5.302  12.348
  1198G11  C0DB82556   8.147   5.647  12.249
  1198G11  C0CC82557   8.218   5.321  12.105
  1198G11  C0D782558   8.195   5.472  11.875
  1198G11  C0DZ82559   8.133   5.737  12.142
  1198G11  C0DM82560   8.168   5.673  11.697
  1198G11  C0DQ82561   8.131   5.952  11.931
  1198G11  C0DV82562   8.114   6.032  12.044
  1198G11  C0E082563   8.086   6.119  12.253
  1198G11  C0FO82564   7.970   6.426  12.132
  1198G11  C0E382565   7.982   6.161  12.340
  1198G11  H01782566   7.908   6.102  12.392
  1198G11  C0GV82567   7.866   6.468  12.211
  1198G11  C0ES82568   7.958   6.438  11.989
  1198G11  C0GQ82569   7.639   6.630  11.975
  1198G11  C0FJ82570   7.701   6.615  11.609
  1198G11  C0ED82571   7.929   6.461  11.703
  1198G11  C0ER82572   8.086   6.591  11.436
  1198G11  C0EP82573   8.183   6.397  11.355
  1198G11  C0E682574   8.071   6.252  11.688
  1198G11  C0DE82575   8.153   5.983  11.560
  1198G11  C0EA82576   8.288   6.179  11.254
  1198G11  C0DF82577   8.147   5.897  11.450
  1198G11  C08082578   8.361   5.860  11.162
  1198G11  C0DO82579   8.183   5.764  11.447
  1198G11  C0DJ82580   8.266   5.494  11.400
  1198G11  C07K82581   8.407   5.607  11.070
  1198G11  C07W82582   8.340   5.305  11.269
  1198G11  C08382583   8.441   5.197  11.037
  1198G11  C07J82584   8.458   5.548  10.952
  1198G11  C06O82585   8.550   5.431  10.713
  1198G11  C06M82586   8.531   5.218  10.813
  1208G11  C07182587   8.006   9.641   6.812
  1208G11  C07L82588   8.099   9.571   6.892
  1208G11  C07M82589   8.234   9.595   6.881
  1208G11  C07Y82590   8.324   9.529   6.962
  1208G11  C08182591   8.282   9.438   7.064
  1208G11  C08282592   8.380   9.386   7.152
  1208G11  C0DI82593   8.371   9.280   7.259
  1208G11  C0DH82594   8.264   9.200   7.305
  1208G11  C0DG82595   8.317   9.104   7.400
  1208G11  C0E982596   8.255   9.056   7.522
  1208G11  C0E882597   8.372   9.062   7.617
  1208G11  C0E782598   8.379   8.996   7.749
  1208G11  C0EB82599   8.280   8.899   7.786
  1208G11  C0EF82600   8.301   8.790   7.886
  1208G11  C0EE82601   8.414   8.744   7.958
  1208G11  C0FD82602   8.426   8.606   7.986
  1208G11  C0FE82603   8.358   8.503   7.916
  1208G11  H01B82604   8.293   8.531   7.834
  1208G11  C0FF82605   8.370   8.371   7.951
  1208G11  H01A82606   8.322   8.293   7.895
  1208G11  C0FG82607   8.473   8.333   8.035
  1208G11  H01882608   8.490   8.226   8.034
  1208G11  C0FH82609   8.548   8.425   8.110
  1208G11  C0FI82610   8.641   8.395   8.212
  1208G11  H01982611   8.658   8.289   8.225
  1208G11  O00K82612   8.692   8.492   8.294
  1208G11  C0FL82613   8.683   8.619   8.250
  1208G11  C0FK82614   8.585   8.662   8.154
  1208G11  C0FM82615   8.583   8.798   8.118
  1208G11  C0FN82616   8.651   8.894   8.200
  1208G11  C0FP82617   8.756   8.844   8.283
  1208G11  C0GO82618   8.844   8.923   8.356
  1208G11  C0GN82619   8.958   8.876   8.420
  1208G11  C0GR82620   8.965   8.739   8.439
  1208G11  C0GS82621   9.082   8.681   8.486
  1208G11  H01Q82622   9.090   8.574   8.497
  1208G11  C0GT82623   9.187   8.769   8.525
  1208G11  H01O82624   9.280   8.728   8.561
  1208G11  C0GU82625   9.171   8.909   8.527
  1208G11  H01P82626   9.253   8.966   8.566
  1208G11  O00L82627   8.870   8.652   8.392
  1208G11  C0GM82628   9.057   8.970   8.467
  1208G11  C0GL82629   9.040   9.108   8.428
  1208G11  H01R82630   9.123   9.177   8.442
  1208G11  C0GK82631   8.913   9.157   8.380
  1208G11  C0GP82632   8.864   9.282   8.320
  1208G11  C0E282633   8.735   9.255   8.268
  1208G11  C0E182634   8.717   9.337   8.151
  1208G11  C0DU82635   8.673   9.291   8.022
  1208G11  C0DT82636   8.587   9.184   7.995
  1208G11  C0E482637   8.556   9.077   8.072
  1208G11  C0E582638   8.506   8.978   7.985
  1208G11  C0DS82639   8.558   9.152   7.861
  1208G11  C0DR82640   8.621   9.225   7.759
  1208G11  C0DD82641   8.601   9.199   7.621
  1208G11  C0DC82642   8.709   9.289   7.565
  1208G11  C0DP82643   8.790   9.360   7.663
  1208G11  C0DA82644   8.910   9.444   7.642
  1208G11  C0D982645   8.973   9.501   7.524
  1208G11  C0CR82646   9.100   9.574   7.524
  1208G11  C0C082647   9.164   9.604   7.642
  1208G11  C0BZ82648   9.287   9.672   7.660
  1208G11  C0C182649   9.334   9.706   7.785
  1208G11  C0C782650   9.447   9.782   7.797
  1208G11  C0C682651   9.491   9.816   7.927
  1208G11  C0C982652   9.603   9.894   7.940
  1208G11  C0B882653   9.642   9.936   8.072
  1208G11  C0B782654   9.749  10.023   8.091
  1208G11  C0B682655   9.788  10.109   8.205
  1208G11  C0B582656   9.713  10.158   8.314
  1208G11  H00Z82657   9.620  10.117   8.350
  1208G11  C0B482658   9.769  10.291   8.346
  1208G11  H01082659   9.733  10.366   8.415
  1208G11  C0B382660   9.879  10.320   8.258
  1208G11  C0AP82661   9.969  10.412   8.198
  1208G11  C0AQ82662  10.019  10.331   8.093
  1208G11  C0AR82663  10.094  10.382   7.987
  1208G11  C0AS82664  10.090  10.295   7.878
  1208G11  C0AT82665  10.006  10.186   7.864
  1208G11  C0BA82666   9.942  10.135   7.972
  1208G11  C0AU82667   9.964  10.139   7.738
  1208G11  C0BE82668   9.849  10.064   7.726
  1208G11  C0BI82669   9.798  10.043   7.600
  1208G11  C0BJ82670   9.854  10.106   7.490
  1208G11  C0BK82671   9.793  10.092   7.368
  1208G11  C0BW82672   9.681  10.008   7.350
  1208G11  C0BV82673   9.631   9.939   7.460
  1208G11  C0BU82674   9.517   9.864   7.443
  1208G11  C0BX82675   9.460   9.800   7.553
  1208G11  C0BT82676   9.452   9.853   7.317
  1208G11  C0CD82677   9.334   9.773   7.309
  1208G11  C0CB82678   9.277   9.708   7.422
  1208G11  C0CE82679   9.266   9.770   7.191
  1208G11  C0CK82680   9.313   9.848   7.082
  1208G11  C0BS82681   9.434   9.915   7.086
  1208G11  C0CJ82682   9.486   9.989   6.976
  1208G11  C0BP82683   9.606  10.062   6.993
  1208G11  C0CI82684   9.663  10.122   6.880
  1208G11  C0CH82685   9.777  10.198   6.905
  1208G11  H01282686   9.805  10.275   6.834
  1208G11  C0BN82687   9.847  10.210   7.025
  1208G11  C0CG82688   9.964  10.280   7.039
  1208G11  C0CF82689  10.040  10.332   6.933
  1208G11  H01382690  10.010  10.316   6.830
  1208G11  O00G82691  10.162  10.387   6.940
  1208G11  C0AA82692  10.197  10.426   7.066
  1208G11  C0A982693  10.306  10.511   7.073
  1208G11  H00U82694  10.365  10.524   6.983
  1208G11  C0A882695  10.331  10.576   7.194
  1208G11  H00V82696  10.416  10.643   7.190
  1208G11  C0A782697  10.264  10.545   7.316
  1208G11  C0A682698  10.164  10.441   7.313
  1208G11  C0A582699  10.102  10.378   7.417
  1208G11  C0A482700  10.152  10.393   7.547
  1208G11  C0A382701  10.221  10.497   7.617
  1208G11  C0A282702  10.242  10.625   7.559
  1208G11  C0A182703  10.312  10.723   7.633
  1208G11  C0A082704  10.318  10.767   7.769
  1208G11  C09Z82705  10.385  10.885   7.799
  1208G11  C09Y82706  10.357  10.957   7.919
  1208G11  H00Y82707  10.404  11.053   7.933
  1208G11  C09X82708  10.261  10.902   8.011
  1208G11  C09W82709  10.240  10.972   8.133
  1208G11  H00R82710  10.298  11.058   8.162
  1208G11  C0AX82711  10.144  10.936   8.220
  1208G11  H00S82712  10.123  10.990   8.310
  1208G11  C0AW82713  10.085  10.808   8.199
  1208G11  H00T82714  10.025  10.772   8.281
  1208G11  C0AN82715  10.117  10.724   8.093
  1208G11  C0AO82716  10.088  10.592   8.091
  1208G11  C0AM82717  10.199  10.776   7.993
  1208G11  C0B282718  10.490  10.942   7.716
  1208G11  O00D82719  10.564  11.032   7.748
  1208G11  C0B182720  10.503  10.881   7.589
  1208G11  H00W82721  10.589  10.921   7.535
  1208G11  C0AL82722  10.235  10.704   7.876
  1208G11  C0AK82723  10.192  10.567   7.872
  1208G11  C0B082724  10.413  10.781   7.552
  1208G11  C0AZ82725  10.413  10.714   7.427
  1208G11  H00X82726  10.485  10.734   7.350
  1208G11  C0AJ82727  10.202  10.479   7.757
  1208G11  C0AH82728  10.108  10.303   7.639
  1208G11  C0AE82729  10.005  10.276   7.396
  1208G11  C0AD82730   9.952  10.254   7.272
  1208G11  C0AY82731  10.302  10.623   7.429
  1208G11  C0AB82732  10.125  10.390   7.181
  1208G11  C0AC82733  10.011  10.311   7.167
  1208G11  C0BM82734   9.788  10.145   7.134
  1208G11  C0CM82735   9.600  10.120   6.754
  1208G11  C09M82736   9.459  10.096   6.761
  1208G11  C09882737   9.377  10.188   6.689
  1208G11  C08R82738   9.237  10.189   6.660
  1208G11  C08Q82739   9.198  10.305   6.586
  1208G11  C08P82740   9.101  10.331   6.480
  1208G11  C08Y82741   9.140  10.423   6.378
  1208G11  C09782742   9.268  10.466   6.365
  1208G11  C09682743   9.300  10.480   6.231
  1208G11  C09082744   9.171  10.504   6.166
  1208G11  C09582745   9.152  10.509   6.027
  1208G11  C09482746   9.027  10.539   5.973
  1208G11  C08J82747   8.893  10.507   6.017
  1208G11  C08I82748   8.806  10.476   5.907
  1208G11  C08H82749   8.699  10.393   5.965
  1208G11  C08G82750   8.737  10.351   6.100
  1208G11  C08F82751   8.678  10.285   6.217
  1208G11  C08E82752   8.541  10.260   6.230
  1208G11  C05982753   8.438  10.321   6.154
  1208G11  C05882754   8.301  10.313   6.197
  1208G11  C05782755   8.190  10.355   6.115
  1208G11  C05682756   8.224  10.423   5.998
  1208G11  C05582757   8.352  10.454   5.972
  1208G11  C05482758   8.359  10.469   5.834
  1208G11  C05382759   8.231  10.453   5.771
  1208G11  C05282760   8.195  10.435   5.633
  1208G11  C05182761   8.294  10.452   5.527
  1208G11  C05U82762   8.436  10.478   5.540
  1208G11  C05T82763   8.526  10.480   5.656
  1208G11  C06K82764   8.649  10.535   5.605
  1208G11  H00J82765   8.729  10.567   5.671
  1208G11  C06L82766   8.643  10.552   5.464
  1208G11  H00I82767   8.730  10.580   5.407
  1208G11  C05V82768   8.510  10.517   5.422
  1208G11  C06J82769   8.463  10.522   5.295
  1208G11  H00K82770   8.527  10.545   5.212
  1208G11  C05X82771   8.331  10.479   5.279
  1208G11  C06I82772   8.270  10.472   5.153
  1208G11  H00L82773   8.334  10.495   5.070
  1208G11  C04Z82774   8.137  10.432   5.122
  1208G11  C06H82775   8.082  10.435   4.986
  1208G11  H00H82776   8.140  10.462   4.899
  1208G11  C04Y82777   7.958  10.375   4.964
  1208G11  C06G82778   7.908  10.362   4.831
  1208G11  O00982779   7.962  10.403   4.733
  1208G11  O00882780   7.792  10.291   4.816
  1208G11  C04P82781   7.719  10.245   4.921
  1208G11  C04J82782   7.600  10.165   4.907
  1208G11  C04Q82783   7.551  10.110   4.791
  1208G11  H00E82784   7.602  10.132   4.699
  1208G11  C04M82785   7.441  10.014   4.794
  1208G11  C04R82786   7.387   9.942   4.676
  1208G11  H00F82787   7.429   9.962   4.579
  1208G11  C04S82788   7.277   9.871   4.676
  1208G11  H00G82789   7.229   9.823   4.592
  1208G11  O00782790   7.215   9.847   4.801
  1208G11  C03V82791   7.258   9.911   4.909
  1208G11  C03U82792   7.190   9.887   5.024
  1208G11  O00682793   7.082   9.806   5.016
  1208G11  C03F82794   7.011   9.776   5.126
  1208G11  C03E82795   7.054   9.826   5.253
  1208G11  C03D82796   7.171   9.901   5.264
  1208G11  C03C82797   7.218   9.937   5.387
  1208G11  C03B82798   7.140   9.895   5.494
  1208G11  C03A82799   7.176   9.940   5.623
  1208G11  C03982800   7.290  10.018   5.650
  1208G11  C03882801   7.299  10.020   5.794
  1208G11  C03782802   7.182   9.953   5.842
  1208G11  C03682803   7.158   9.940   5.974
  1208G11  C02R82804   7.062   9.862   6.031
  1208G11  C03582805   7.103   9.855   6.165
  1208G11  C03R82806   7.218   9.931   6.182
  1208G11  C03S82807   7.309   9.908   6.284
  1208G11  C04982808   7.440   9.950   6.264
  1208G11  C04882809   7.473  10.016   6.140
  1208G11  C03P82810   7.384  10.027   6.024
  1208G11  C04782811   7.593  10.089   6.143
  1208G11  C04682812   7.642  10.178   6.051
  1208G11  C04582813   7.598  10.207   5.920
  1208G11  C03T82814   7.495  10.152   5.843
  1208G11  C04482815   7.516  10.195   5.707
  1208G11  C04382816   7.625  10.288   5.711
  1208G11  C04282817   7.702  10.269   5.595
  1208G11  C04182818   7.597  10.210   5.504
  1208G11  C04082819   7.606  10.209   5.363
  1208G11  C03Z82820   7.515  10.143   5.273
  1208G11  C04H82821   7.569  10.181   5.144
  1208G11  C04G82822   7.685  10.248   5.156
  1208G11  C03N82823   7.397  10.062   5.277
  1208G11  C03Y82824   7.353  10.014   5.150
  1208G11  C03X82825   7.417  10.051   5.026
  1208G11  C04F82826   7.716  10.263   5.288
  1208G11  C04E82827   7.842  10.323   5.320
  1208G11  C04O82828   7.926  10.352   5.210
  1208G11  C04D82829   7.895  10.352   5.443
  1208G11  C04V82830   8.031  10.387   5.460
  1208G11  C04W82831   8.119  10.409   5.356
  1208G11  C04C82832   7.835  10.332   5.569
  1208G11  C04L82833   7.935  10.381   5.663
  1208G11  C04U82834   7.909  10.398   5.808
  1208G11  C05Q82835   8.010  10.407   5.898
  1208G11  C05P82836   7.969  10.353   6.022
  1208G11  C04T82837   7.843  10.308   6.014
  1208G11  C04B82838   7.802  10.344   5.886
  1208G11  C03M82839   7.484  10.150   5.573
  1208G11  C04A82840   7.680  10.289   5.839
  1208G11  C05H82841   7.759  10.232   6.100
  1208G11  C05G82842   7.790  10.170   6.228
  1208G11  C05F82843   7.910  10.180   6.305
  1208G11  C05E82844   7.959  10.075   6.394
  1208G11  C05L82845   7.898   9.961   6.467
  1208G11  C05K82846   7.764   9.925   6.457
  1208G11  C05J82847   7.662   9.974   6.367
  1208G11  C06682848   7.726   9.827   6.552
  1208G11  C06582849   7.816   9.767   6.637
  1208G11  C06482850   7.954   9.789   6.626
  1208G11  C06N82851   7.777   9.678   6.738
  1208G11  C06982852   7.641   9.643   6.745
  1208G11  C06P82853   7.598   9.544   6.837
  1208G11  C06R82854   7.465   9.512   6.849
  1208G11  C06B82855   7.374   9.557   6.753
  1208G11  C06S82856   7.242   9.512   6.771
  1208G11  C02G82857   7.151   9.548   6.670
  1208G11  C02F82858   7.030   9.483   6.658
  1208G11  C02782859   6.991   9.383   6.751
  1208G11  C02682860   6.883   9.305   6.724
  1208G11  C00E82861   6.852   9.204   6.807
  1208G11  C00D82862   6.745   9.124   6.774
  1208G11  C00C82863   6.714   9.029   6.866
  1208G11  C00B82864   6.784   8.996   6.981
  1208G11  C01582865   6.897   9.072   7.003
  1208G11  C07F82866   6.978   9.044   7.113
  1208G11  C07E82867   7.096   9.109   7.127
  1208G11  C06W82868   7.132   9.205   7.037
  1208G11  C06V82869   7.041   9.249   6.941
  1208G11  C06X82870   7.258   9.261   7.037
  1208G11  C07B82871   7.349   9.217   7.129
  1208G11  C07C82872   7.316   9.116   7.217
  1208G11  C0FU82873   7.409   9.065   7.310
  1208G11  C0F782874   7.368   8.979   7.411
  1208G11  C0F682875   7.462   8.938   7.498
  1208G11  C0F882876   7.419   8.857   7.603
  1208G11  C0F982877   7.508   8.825   7.698
  1208G11  C0FA82878   7.463   8.754   7.811
  1208G11  C0FZ82879   7.335   8.716   7.815
  1208G11  C0G082880   7.277   8.661   7.933
  1208G11  C0GD82881   7.354   8.653   8.045
  1208G11  C0FC82882   7.492   8.681   8.037
  1208G11  C0GH82883   7.582   8.651   8.141
  1208G11  C0EY82884   7.720   8.660   8.123
  1208G11  C0EX82885   7.814   8.625   8.222
  1208G11  C0EW82886   7.950   8.636   8.203
  1208G11  C0FR82887   8.043   8.589   8.304
  1208G11  H01D82888   8.150   8.582   8.287
  1208G11  C0FS82889   7.992   8.536   8.423
  1208G11  H01C82890   8.058   8.508   8.504
  1208G11  C0GJ82891   7.855   8.537   8.442
  1208G11  H01N82892   7.824   8.501   8.539
  1208G11  C0EV82893   7.997   8.685   8.082
  1208G11  C0FT82894   8.134   8.690   8.058
  1208G11  H01E82895   8.213   8.658   8.124
  1208G11  C0EU82896   7.903   8.734   7.989
  1208G11  C0ET82897   7.944   8.793   7.868
  1208G11  C0EI82898   7.863   8.842   7.768
  1208G11  C0F182899   7.725   8.820   7.790
  1208G11  C0F082900   7.681   8.755   7.903
  1208G11  C0EH82901   7.920   8.914   7.660
  1208G11  C0EG82902   8.061   8.943   7.650
  1208G11  C0EJ82903   7.825   8.956   7.564
  1208G11  C0F382904   7.689   8.927   7.581
  1208G11  C0EK82905   7.868   9.037   7.462
  1208G11  C0EL82906   8.009   9.073   7.443
  1208G11  C0EM82907   8.033   9.154   7.328
  1208G11  C0EN82908   7.928   9.202   7.257
  1208G11  C07I82909   7.963   9.298   7.161
  1208G11  C07482910   7.874   9.360   7.076
  1208G11  C07382911   7.922   9.454   6.994
  1208G11  C07282912   7.831   9.514   6.910
  1208G11  C07582913   7.743   9.320   7.091
  1208G11  C07682914   7.706   9.235   7.193
  1208G11  C07882915   7.574   9.193   7.195
  1208G11  C07G82916   7.652   9.380   7.009
  1208G11  C07082917   7.517   9.352   7.023
  1208G11  C07Z82918   8.096   9.314   7.162
  1208G11  C07782919   7.795   9.176   7.282
  1208G11  C0EO82920   7.771   9.081   7.376
  1208G11  C0F482921   7.636   9.057   7.392
  1208G11  C0EQ82922   8.081   8.797   7.849
  1208G11  C0FQ82923   7.762   8.569   8.345
  1208G11  C0GI82924   7.624   8.562   8.358
  1208G11  H01L82925   7.593   8.516   8.451
  1208G11  C0EZ82926   7.768   8.717   8.005
  1208G11  C0GG82927   7.532   8.609   8.263
  1208G11  C0GF82928   7.388   8.610   8.280
  1208G11  H01M82929   7.344   8.584   8.375
  1208G11  C0GE82930   7.309   8.624   8.169
  1208G11  H01K82931   7.205   8.600   8.178
  1208G11  O00J82932   7.147   8.613   7.937
  1208G11  C0GA82933   7.069   8.621   7.828
  1208G11  C0G982934   6.947   8.560   7.832
  1208G11  H01H82935   6.908   8.502   7.914
  1208G11  C0G882936   6.866   8.564   7.713
  1208G11  C0G782937   6.746   8.487   7.698
  1208G11  H01I82938   6.714   8.427   7.782
  1208G11  O00I82939   6.688   8.471   7.573
  1208G11  C0G682940   6.723   8.554   7.475
  1208G11  H01J82941   6.670   8.539   7.382
  1208G11  C02D82942   6.834   8.644   7.480
  1208G11  C02C82943   6.867   8.734   7.380
  1208G11  C01782944   6.794   8.757   7.258
  1208G11  C01682945   6.828   8.865   7.170
  1208G11  O00182946   6.687   8.671   7.225
  1208G11  C01882947   6.625   8.673   7.096
  1208G11  C00982948   6.646   8.792   7.019
  1208G11  C00882949   6.584   8.826   6.893
  1208G11  C00782950   6.487   8.760   6.804
  1208G11  C00682951   6.436   8.633   6.826
  1208G11  C00582952   6.345   8.570   6.735
  1208G11  C00482953   6.295   8.605   6.602
  1208G11  C00382954   6.333   8.711   6.508
  1208G11  C00282955   6.291   8.710   6.367
  1208G11  C00P82956   6.330   8.808   6.271
  1208G11  C00O82957   6.294   8.801   6.137
  1208G11  C00N82958   6.331   8.907   6.046
  1208G11  C01082959   6.294   8.902   5.911
  1208G11  C01182960   6.340   9.004   5.820
  1208G11  C01Q82961   6.314   8.991   5.686
  1208G11  C01U82962   6.257   8.875   5.638
  1208G11  C01282963   6.210   8.776   5.729
  1208G11  H00082964   6.163   8.686   5.693
  1208G11  C01V82965   6.240   8.873   5.497
  1208G11  H00782966   6.194   8.786   5.453
  1208G11  O00582967   6.268   8.977   5.413
  1208G11  C01W82968   6.324   9.086   5.464
  1208G11  C03182969   6.354   9.190   5.374
  1208G11  C03282970   6.396   9.316   5.427
  1208G11  H00A82971   6.403   9.408   5.370
  1208G11  C03382972   6.418   9.328   5.566
  1208G11  H00B82973   6.447   9.426   5.600
  1208G11  C01O82974   6.411   9.219   5.653
  1208G11  C01N82975   6.453   9.220   5.786
  1208G11  C01M82976   6.531   9.334   5.837
  1208G11  C01L82977   6.619   9.450   5.801
  1208G11  C01K82978   6.665   9.501   5.923
  1208G11  C01Y82979   6.770   9.590   5.942
  1208G11  C02I82980   6.828   9.642   5.832
  1208G11  C02N82981   6.926   9.741   5.850
  1208G11  C02M82982   6.995   9.797   5.736
  1208G11  C02L82983   6.961   9.759   5.605
  1208G11  C02K82984   6.865   9.657   5.589
  1208G11  C02U82985   6.836   9.610   5.461
  1208G11  C02V82986   6.883   9.678   5.351
  1208G11  C03H82987   6.844   9.635   5.219
  1208G11  H00C82988   6.761   9.567   5.207
  1208G11  C02W82989   6.787   9.478   5.449
  1208G11  C02X82990   6.728   9.426   5.562
  1208G11  C02Y82991   6.710   9.289   5.523
  1208G11  H00882992   6.677   9.207   5.585
  1208G11  C02Z82993   6.748   9.268   5.379
  1208G11  O00482994   6.741   9.174   5.306
  1208G11  O00382995   6.809   9.392   5.346
  1208G11  C02J82996   6.789   9.604   5.702
  1208G11  C01Z82997   6.813   9.603   6.077
  1208G11  C02082998   6.766   9.519   6.175
  1208G11  C01I82999   6.668   9.426   6.154
  1208G11  C01H83000   6.631   9.326   6.239
  1208G11  C00K83001   6.545   9.228   6.194
  1208G11  C01S83002   6.501   9.227   6.061
  1208G11  C01483003   6.434   9.116   6.007
  1208G11  C00J83004   6.515   9.128   6.276
  1208G11  C00I83005   6.572   9.125   6.405
  1208G11  C00H83006   6.658   9.226   6.448
  1208G11  C00G83007   6.713   9.228   6.568
  1208G11  C00S83008   6.528   9.030   6.495
  1208G11  C00T83009   6.585   9.041   6.617
  1208G11  C00U83010   6.548   8.944   6.708
  1208G11  C00R83011   6.452   8.921   6.456
  1208G11  C00L83012   6.438   9.018   6.232
  1208G11  C02883013   6.692   9.325   6.360
  1208G11  C02383014   6.790   9.421   6.394
  1208G11  C02483015   6.852   9.413   6.513
  1208G11  C02183016   6.819   9.516   6.300
  1208G11  C02283017   6.928   9.599   6.328
  1208G11  C02H83018   6.993   9.593   6.449
  1208G11  C03083019   7.100   9.677   6.473
  1208G11  C03483020   7.141   9.768   6.378
  1208G11  C02P83021   6.975   9.679   6.229
  1208G11  C02B83022   6.917   9.686   6.101
  1208G11  C01J83023   6.606   9.435   6.031
  1208G11  C01X83024   6.700   9.492   5.691
  1208G11  C01T83025   6.541   9.329   5.979
  1208G11  H00983026   6.324   9.180   5.271
  1208G11  C01P83027   6.351   9.097   5.604
  1208G11  C01R83028   6.411   9.113   5.869
  1208G11  C00Z83029   6.232   8.782   5.868
  1208G11  O00083030   6.193   8.680   5.956
  1208G11  C00M83031   6.395   9.018   6.096
  1208G11  C00Y83032   6.221   8.692   6.092
  1208G11  C01383033   6.180   8.602   6.186
  1208G11  H00183034   6.126   8.514   6.154
  1208G11  C00Q83035   6.407   8.916   6.320
  1208G11  C00183036   6.203   8.609   6.323
  1208G11  C00083037   6.151   8.526   6.420
  1208G11  H00683038   6.077   8.451   6.397
  1208G11  C00W83039   6.418   8.820   6.546
  1208G11  C01G83040   6.200   8.515   6.545
  1208G11  H00583041   6.156   8.438   6.607
  1208G11  C01C83042   6.291   8.455   6.811
  1208G11  H00283043   6.220   8.382   6.775
  1208G11  C01B83044   6.362   8.440   6.937
  1208G11  C01D83045   6.351   8.342   7.037
  1208G11  H00383046   6.287   8.255   7.029
  1208G11  C01E83047   6.425   8.369   7.149
  1208G11  H00483048   6.411   8.305   7.235
  1208G11  O00283049   6.511   8.478   7.158
  1208G11  C01A83050   6.447   8.557   6.945
  1208G11  C00V83051   6.478   8.827   6.680
  1208G11  C01983052   6.527   8.574   7.062
  1208G11  C02E83053   6.986   8.807   7.389
  1208G11  C0FX83054   7.071   8.778   7.502
  1208G11  C0FW83055   7.200   8.838   7.505
  1208G11  C0GB83056   7.034   8.693   7.603
  1208G11  C0G383057   7.023   8.905   7.302
  1208G11  C07H83058   7.153   8.964   7.310
  1208G11  C0GC83059   6.911   8.637   7.602
  1208G11  C0G283060   7.118   8.689   7.716
  1208G11  C0G183061   7.247   8.734   7.709
  1208G11  C0FB83062   7.543   8.729   7.916
  1208G11  C0F283063   7.641   8.858   7.692
  1208G11  C0FY83064   7.288   8.812   7.606
  1208G11  C0F583065   7.591   8.975   7.490
  1208G11  C0FV83066   7.240   8.923   7.407
  1208G11  C07983067   7.539   9.111   7.303
  1208G11  C07A83068   7.480   9.256   7.113
  1208G11  C06Y83069   7.296   9.363   6.948
  1208G11  C07D83070   7.187   9.061   7.219
  1208G11  C01F83071   6.942   8.939   7.196
  1208G11  C00A83072   6.747   8.885   7.063
  1208G11  C00X83073   6.603   8.949   6.834
  1208G11  C00F83074   6.681   9.131   6.655
  1208G11  C02983075   6.924   9.181   6.922
  1208G11  C02583076   6.813   9.318   6.601
  1208G11  C06U83077   7.078   9.352   6.854
  1208G11  C02A83078   6.959   9.498   6.540
  1208G11  C05Y83079   7.188   9.647   6.577
  1208G11  C05Z83080   7.316   9.704   6.578
  1208G11  C06083081   7.356   9.795   6.481
  1208G11  C06283082   7.493   9.835   6.472
  1208G11  C06T83083   7.205   9.409   6.856
  1208G11  C06A83084   7.408   9.657   6.663
  1208G11  C06Z83085   7.426   9.414   6.939
  1208G11  C06Q83086   7.693   9.476   6.919
  1208G11  C06883087   7.547   9.700   6.658
  1208G11  C06783088   7.589   9.792   6.565
  1208G11  C06383089   7.996   9.890   6.541
  1208G11  C06C83090   8.137   9.912   6.534
  1208G11  C06D83091   8.189  10.012   6.459
  1208G11  C06E83092   8.325  10.045   6.442
  1208G11  C07Q83093   8.414   9.969   6.506
  1208G11  C07P83094   8.363   9.873   6.593
  1208G11  C07T83095   8.452   9.813   6.681
  1208G11  C07U83096   8.406   9.723   6.775
  1208G11  C07V83097   8.502   9.671   6.863
  1208G11  C08483098   8.633   9.706   6.863
  1208G11  C08C83099   8.682   9.790   6.763
  1208G11  C08B83100   8.814   9.831   6.760
  1208G11  C08A83101   8.850   9.924   6.672
  1208G11  C08983102   8.765   9.991   6.590
  1208G11  C08883103   8.810  10.099   6.510
  1208G11  C08783104   8.723  10.152   6.417
  1208G11  C08683105   8.590  10.106   6.417
  1208G11  C08X83106   8.938  10.150   6.517
  1208G11  C08T83107   9.035  10.071   6.606
  1208G11  C08D83108   8.634   9.949   6.593
  1208G11  C08U83109   8.979   9.966   6.672
  1208G11  C08V83110   9.064   9.913   6.764
  1208G11  C0CY83111   9.031   9.821   6.858
  1208G11  C0CX83112   9.115   9.804   6.961
  1208G11  C0CW83113   9.070   9.729   7.070
  1208G11  C0CV83114   8.943   9.680   7.059
  1208G11  C0D483115   8.856   9.710   6.957
  1208G11  C0CU83116   8.894   9.603   7.167
  1208G11  C0CT83117   8.963   9.583   7.290
  1208G11  C0CS83118   9.091   9.641   7.296
  1208G11  C0D683119   8.768   9.546   7.152
  1208G11  C0EC83120   8.678   9.576   7.055
  1208G11  C07X83121   8.549   9.521   7.047
  1208G11  C0DL83122   8.729   9.456   7.247
  1208G11  C0DK83123   8.602   9.396   7.240
  1208G11  C0DN83124   8.599   9.308   7.340
  1208G11  C0D883125   8.797   9.426   7.365
  1208G11  C08W83126   9.184   9.976   6.757
  1208G11  C0CQ83127   9.281   9.959   6.864
  1208G11  C09383128   8.901   9.784   6.855
  1208G11  C09283129   8.721   9.666   6.965
  1208G11  C08583130   8.588   9.850   6.680
  1208G11  C07S83131   8.545  10.010   6.504
  1208G11  C06F83132   8.367  10.145   6.353
  1208G11  C07O83133   8.227   9.841   6.607
  1208G11  C07N83134   8.183   9.751   6.702
  1208G11  C05D83135   8.093  10.099   6.401
  1208G11  C05C83136   8.143  10.196   6.319
  1208G11  C05N83137   8.029  10.243   6.250
  1208G11  C05M83138   7.682  10.080   6.261
  1208G11  C05I83139   7.530   9.922   6.368
  1208G11  C06183140   7.268   9.825   6.384
  1208G11  C02Q83141   7.070   9.764   6.258
  1208G11  C02O83142   6.967   9.761   5.993
  1208G11  C03Q83143   7.259   9.974   6.058
  1208G11  C03O83144   7.396  10.066   5.888
  1208G11  C03L83145   7.375  10.066   5.539
  1208G11  C02S83146   7.107   9.891   5.740
  1208G11  C02T83147   7.025   9.810   5.493
  1208G11  C03K83148   7.332  10.023   5.402
  1208G11  C03I83149   6.986   9.772   5.365
  1208G11  C03G83150   6.906   9.685   5.106
  1208G11  H00D83151   6.886   9.657   5.003
  1208G11  C03J83152   7.239   9.938   5.148
  1208G11  C03W83153   7.372   9.995   4.908
  1208G11  C04I83154   7.526  10.134   5.025
  1208G11  C04K83155   7.761  10.281   5.045
  1208G11  C04N83156   7.882  10.334   5.074
  1208G11  C04X83157   8.062  10.397   5.231
  1208G11  C05083158   8.251  10.444   5.390
  1208G11  C05W83159   8.061  10.398   5.595
  1208G11  C05S83160   8.494  10.455   5.794
  1208G11  C05R83161   8.148  10.438   5.885
  1208G11  C05O83162   8.053  10.317   6.131
  1208G11  C05B83163   8.276  10.232   6.297
  1208G11  C05A83164   8.460  10.396   6.027
  1208G11  C07R83165   8.501  10.167   6.332
  1208G11  C08N83166   8.768  10.247   6.319
  1208G11  C08M83167   8.897  10.308   6.339
  1208G11  C08L83168   8.945  10.395   6.239
  1208G11  C09183169   8.562  10.412   5.925
  1208G11  C09K83170   8.900  10.450   5.796
  1208G11  H00M83171   8.877  10.400   5.704
  1208G11  C08K83172   8.864  10.415   6.123
  1208G11  C09J83173   9.033  10.501   5.834
  1208G11  C09I83174   9.169  10.494   5.799
  1208G11  C09L83175   9.235  10.493   5.676
  1208G11  H00N83176   9.186  10.493   5.579
  1208G11  C09Q83177   9.365  10.483   5.687
  1208G11  H00O83178   9.416  10.466   5.593
  1208G11  O00B83179   9.447  10.480   5.803
  1208G11  C09G83180   9.386  10.486   5.924
  1208G11  C09F83181   9.467  10.465   6.041
  1208G11  O00A83182   9.595  10.459   5.997
  1208G11  C09P83183   9.681  10.383   6.078
  1208G11  H00P83184   9.753  10.326   6.021
  1208G11  C09O83185   9.659  10.378   6.222
  1208G11  C09D83186   9.530  10.417   6.275
  1208G11  C09C83187   9.481  10.395   6.416
  1208G11  C09N83188   9.535  10.328   6.531
  1208G11  C09T83189   9.637  10.237   6.518
  1208G11  C09S83190   9.747  10.259   6.426
  1208G11  C0CP83191   9.852  10.194   6.496
  1208G11  C0CN83192   9.821  10.134   6.621
  1208G11  C0CO83193   9.919  10.059   6.685
  1208G11  H01483194   9.889   9.996   6.767
  1208G11  C0CZ83195  10.054  10.076   6.633
  1208G11  H01583196  10.126  10.015   6.685
  1208G11  C0D083197  10.085  10.155   6.521
  1208G11  C0G583198  10.216  10.180   6.469
  1208G11  H01F83199  10.299  10.138   6.524
  1208G11  C0G483200  10.232  10.254   6.356
  1208G11  H01G83201  10.332  10.264   6.317
  1208G11  O00H83202  10.131  10.302   6.279
  1208G11  C0D283203  10.005  10.283   6.326
  1208G11  C09V83204   9.898  10.336   6.257
  1208G11  H00Q83205   9.922  10.394   6.169
  1208G11  C0D183206   9.982  10.209   6.444
  1208G11  C09R83207   9.762  10.331   6.303
  1208G11  C09H83208   9.247  10.495   5.920
  1208G11  C09E83209   9.433  10.458   6.181
  1208G11  C09B83210   9.355  10.431   6.460
  1208G11  C08Z83211   9.079  10.442   6.258
  1208G11  C08O83212   8.981  10.263   6.450
  1208G11  C09A83213   9.316  10.391   6.588
  1208G11  C08S83214   9.162  10.072   6.662
  1208G11  C09983215   9.423  10.314   6.626
  1208G11  C09U83216   9.682  10.160   6.637
  1208G11  C0BO83217   9.669  10.071   7.116
  1208G11  C0CL83218   9.410  10.013   6.862
  1208G11  C0D383219   9.241   9.867   6.967
  1208G11  C0D583220   9.144   9.711   7.187
  1208G11  C0BR83221   9.500   9.918   7.211
  1208G11  C0BQ83222   9.619   9.996   7.225
  1208G11  C0BL83223   9.842  10.167   7.260
  1208G11  C0AF83224   9.960  10.193   7.502
  1208G11  C0BH83225   9.688   9.960   7.587
  1208G11  C0BG83226   9.628   9.905   7.697
  1208G11  C0BD83227   9.779  10.024   7.846
  1208G11  C0AG83228  10.017  10.200   7.624
  1208G11  C0AI83229  10.142  10.350   7.763
  1208G11  C0AV83230  10.129  10.511   7.985
  1208G11  C0BB83231   9.963  10.209   8.088
  1208G11  O00C83232   9.999  10.547   8.190
  1208G11  C0BC83233   9.903  10.194   8.202
  1208G11  C0B983234   9.826  10.052   7.973
  1208G11  O00E83235   9.571   9.894   8.178
  1208G11  C0CA83236   9.473   9.815   8.171
  1208G11  O00F83237   9.421   9.773   8.276
  1208G11  C0BF83238   9.673   9.940   7.828
  1208G11  C0C583239   9.433   9.780   8.044
  1208G11  C0C483240   9.317   9.695   8.034
  1208G11  H01183241   9.257   9.681   8.123
  1208G11  C0C883242   9.511   9.826   7.682
  1208G11  C0C283243   9.271   9.664   7.900
  1208G11  C0C383244   9.153   9.593   7.881
  1208G11  C0DY83245   9.067   9.546   7.976
  1208G11  H01683246   9.053   9.564   8.081
  1208G11  C0DX83247   8.969   9.468   7.910
  1208G11  C0DW83248   8.855   9.421   7.984
  1208G11  C0BY83249   9.345   9.720   7.541
  1208G11  C0DB83250   9.104   9.556   7.757
  1208G11  C0CC83251   9.153   9.634   7.416
  1208G11  C0D783252   8.916   9.502   7.394
  1208G11  C0DZ83253   8.980   9.483   7.762
  1208G11  C0DM83254   8.715   9.320   7.426
  1208G11  C0DQ83255   8.727   9.317   7.784
  1208G11  C0DV83256   8.751   9.347   7.922
  1208G11  C0E083257   8.838   9.412   8.131
  1208G11  C0FO83258   8.714   9.112   8.268
  1208G11  C0E383259   8.939   9.373   8.231
  1208G11  H01783260   9.045   9.368   8.210
  1208G11  C0GV83261   8.813   9.060   8.356
  1208G11  C0ES83262   8.632   9.034   8.183
  1208G11  C0GQ83263   8.772   8.707   8.308
  1208G11  C0FJ83264   8.517   8.562   8.086
  1208G11  C0ED83265   8.497   8.841   8.018
  1208G11  C0ER83266   8.175   8.745   7.941
  1208G11  C0EP83267   8.140   8.881   7.749
  1208G11  C0E683268   8.477   9.036   7.850
  1208G11  C0DE83269   8.490   9.121   7.554
  1208G11  C0EA83270   8.109   9.027   7.540
  1208G11  C0DF83271   8.451   9.133   7.423
  1208G11  C08083272   8.140   9.211   7.256
  1208G11  C0DO83273   8.482   9.238   7.338
  1208G11  C0DJ83274   8.509   9.428   7.140
  1208G11  C07K83275   8.150   9.411   7.069
  1208G11  C07W83276   8.455   9.574   6.958
  1208G11  C08383277   8.272   9.690   6.786
  1208G11  C07J83278   8.061   9.477   6.984
  1208G11  C06O83279   7.870   9.615   6.824
  1208G11  C06M83280   8.043   9.729   6.714
  1218G11  C07183281   1.812   9.913  14.233
  1218G11  C07L83282   1.927   9.977  14.188
  1218G11  C07M83283   2.043   9.985  14.271
  1218G11  C07Y83284   2.158  10.046  14.223
  1218G11  C08183285   2.169  10.106  14.091
  1218G11  C08283286   2.293  10.170  14.048
  1218G11  C0DI83287   2.327  10.237  13.922
  1218G11  C0DH83288   2.248  10.268  13.807
  1218G11  C0DG83289   2.329  10.331  13.709
  1218G11  C0E983290   2.300  10.444  13.625
  1218G11  C0E883291   2.418  10.532  13.642
  1218G11  C0E783292   2.456  10.644  13.559
  1218G11  C0EB83293   2.415  10.659  13.422
  1218G11  C0EF83294   2.488  10.723  13.309
  1218G11  C0EE83295   2.607  10.786  13.304
  1218G11  C0FD83296   2.684  10.770  13.187
  1218G11  C0FE83297   2.671  10.658  13.096
  1218G11  H01B83298   2.602  10.577  13.115
  1218G11  C0FF83299   2.743  10.651  12.977
  1218G11  H01A83300   2.742  10.579  12.896
  1218G11  C0FG83301   2.825  10.759  12.951
  1218G11  H01883302   2.871  10.754  12.853
  1218G11  C0FH83303   2.857  10.856  13.045
  1218G11  C0FI83304   2.962  10.954  13.029
  1218G11  H01983305   3.022  10.943  12.940
  1218G11  O00K83306   2.988  11.062  13.115
  1218G11  C0FL83307   2.905  11.068  13.223
  1218G11  C0FK83308   2.801  10.976  13.255
  1218G11  C0FM83309   2.734  10.982  13.377
  1218G11  C0FN83310   2.765  11.080  13.472
  1218G11  C0FP83311   2.867  11.174  13.439
  1218G11  C0GO83312   2.914  11.263  13.531
  1218G11  C0GN83313   3.021  11.343  13.514
  1218G11  C0GR83314   3.080  11.343  13.384
  1218G11  C0GS83315   3.190  11.418  13.352
  1218G11  H01Q83316   3.250  11.387  13.268
  1218G11  C0GT83317   3.248  11.495  13.456
  1218G11  H01O83318   3.338  11.550  13.436
  1218G11  C0GU83319   3.185  11.507  13.580
  1218G11  H01P83320   3.227  11.569  13.657
  1218G11  O00L83321   3.029  11.260  13.285
  1218G11  C0GM83322   3.076  11.423  13.613
  1218G11  C0GL83323   3.025  11.402  13.746
  1218G11  H01R83324   3.085  11.444  13.825
  1218G11  C0GK83325   2.914  11.328  13.769
  1218G11  C0GP83326   2.851  11.266  13.882
  1218G11  C0E283327   2.737  11.197  13.834
  1218G11  C0E183328   2.713  11.078  13.916
  1218G11  C0DU83329   2.680  10.948  13.866
  1218G11  C0DT83330   2.610  10.907  13.756
  1218G11  C0E483331   2.631  10.965  13.629
  1218G11  C0E583332   2.586  10.873  13.531
  1218G11  C0DS83333   2.580  10.776  13.730
  1218G11  C0DR83334   2.635  10.678  13.827
  1218G11  C0DD83335   2.615  10.541  13.822
  1218G11  C0DC83336   2.692  10.494  13.942
  1218G11  C0DP83337   2.770  10.609  14.001
  1218G11  C0DA83338   2.866  10.609  14.110
  1218G11  C0D983339   2.883  10.517  14.221
  1218G11  C0CR83340   2.985  10.541  14.318
  1218G11  C0C083341   3.091  10.624  14.289
  1218G11  C0BZ83342   3.204  10.650  14.374
  1218G11  C0C183343   3.297  10.747  14.341
  1218G11  C0C783344   3.406  10.759  14.431
  1218G11  C0C683345   3.512  10.849  14.400
  1218G11  C0C983346   3.607  10.869  14.492
  1218G11  C0B883347   3.717  10.959  14.456
  1218G11  C0B783348   3.819  10.995  14.549
  1218G11  C0B683349   3.930  11.091  14.540
  1218G11  C0B583350   3.918  11.211  14.463
  1218G11  H00Z83351   3.854  11.232  14.379
  1218G11  C0B483352   3.994  11.315  14.526
  1218G11  H01083353   4.000  11.421  14.508
  1218G11  C0B383354   4.058  11.256  14.647
  1218G11  C0AP83355   4.054  11.293  14.789
  1218G11  C0AQ83356   4.006  11.180  14.855
  1218G11  C0AR83357   3.949  11.188  14.986
  1218G11  C0AS83358   3.879  11.078  15.021
  1218G11  C0AT83359   3.832  10.980  14.935
  1218G11  C0BA83360   3.871  10.991  14.800
  1218G11  C0AU83361   3.720  10.909  14.957
  1218G11  C0BE83362   3.653  10.848  14.850
  1218G11  C0BI83363   3.539  10.772  14.888
  1218G11  C0BJ83364   3.492  10.770  15.020
  1218G11  C0BK83365   3.382  10.692  15.053
  1218G11  C0BW83366   3.329  10.607  14.956
  1218G11  C0BV83367   3.363  10.618  14.820
  1218G11  C0BU83368   3.280  10.572  14.724
  1218G11  C0BX83369   3.298  10.605  14.588
  1218G11  C0BT83370   3.171  10.490  14.764
  1218G11  C0CD83371   3.082  10.450  14.665
  1218G11  C0CB83372   3.087  10.505  14.533
  1218G11  C0CE83373   2.976  10.366  14.700
  1218G11  C0CK83374   2.969  10.330  14.833
  1218G11  C0BS83375   3.050  10.381  14.933
  1218G11  C0CJ83376   3.028  10.347  15.070
  1218G11  C0BP83377   3.103  10.415  15.166
  1218G11  C0CI83378   3.089  10.386  15.304
  1218G11  C0CH83379   3.136  10.485  15.392
  1218G11  H01283380   3.107  10.474  15.496
  1218G11  C0BN83381   3.209  10.600  15.350
  1218G11  C0CG83382   3.245  10.703  15.433
  1218G11  C0CF83383   3.177  10.717  15.558
  1218G11  H01383384   3.102  10.645  15.589
  1218G11  O00G83385   3.198  10.829  15.634
  1218G11  C0AA83386   3.285  10.924  15.590
  1218G11  C0A983387   3.300  11.040  15.670
  1218G11  H00U83388   3.244  11.038  15.762
  1218G11  C0A883389   3.385  11.141  15.634
  1218G11  H00V83390   3.389  11.218  15.709
  1218G11  C0A783391   3.461  11.135  15.513
  1218G11  C0A683392   3.445  11.014  15.427
  1218G11  C0A583393   3.523  10.986  15.312
  1218G11  C0A483394   3.641  11.064  15.282
  1218G11  C0A383395   3.712  11.180  15.325
  1218G11  C0A283396   3.641  11.280  15.387
  1218G11  C0A183397   3.693  11.409  15.413
  1218G11  C0A083398   3.801  11.495  15.357
  1218G11  C09Z83399   3.830  11.616  15.424
  1218G11  C09Y83400   3.936  11.702  15.379
  1218G11  H00Y83401   3.959  11.796  15.426
  1218G11  C09X83402   3.990  11.674  15.253
  1218G11  C09W83403   4.046  11.789  15.190
  1218G11  H00R83404   4.067  11.879  15.247
  1218G11  C0AX83405   4.090  11.782  15.057
  1218G11  H00S83406   4.139  11.865  15.008
  1218G11  C0AW83407   4.094  11.658  14.999
  1218G11  H00T83408   4.149  11.646  14.907
  1218G11  C0AN83409   4.026  11.541  15.051
  1218G11  C0AO83410   4.017  11.415  14.985
  1218G11  C0AM83411   3.964  11.556  15.179
  1218G11  C0B283412   3.764  11.672  15.545
  1218G11  O00D83413   3.789  11.780  15.602
  1218G11  C0B183414   3.650  11.588  15.589
  1218G11  H00W83415   3.597  11.624  15.676
  1218G11  C0AL83416   3.876  11.456  15.237
  1218G11  C0AK83417   3.872  11.329  15.168
  1218G11  C0B083418   3.630  11.464  15.526
  1218G11  C0AZ83419   3.529  11.368  15.569
  1218G11  H00X83420   3.461  11.393  15.650
  1218G11  C0AJ83421   3.805  11.212  15.222
  1218G11  C0AH83422   3.710  11.012  15.172
  1218G11  C0AE83423   3.481  10.884  15.226
  1218G11  C0AD83424   3.388  10.792  15.265
  1218G11  C0AY83425   3.537  11.254  15.485
  1218G11  C0AB83426   3.355  10.915  15.467
  1218G11  C0AC83427   3.331  10.800  15.390
  1218G11  C0BM83428   3.250  10.600  15.218
  1218G11  C0CM83429   3.008  10.276  15.343
  1218G11  C09M83430   2.907  10.238  15.252
  1218G11  C09883431   2.778  10.219  15.313
  1218G11  C08R83432   2.653  10.172  15.266
  1218G11  C08Q83433   2.550  10.167  15.360
  1218G11  C08P83434   2.436  10.082  15.391
  1218G11  C08Y83435   2.402  10.071  15.525
  1218G11  C09783436   2.494  10.105  15.620
  1218G11  C09683437   2.490  10.011  15.721
  1218G11  C09083438   2.368   9.944  15.700
  1218G11  C09583439   2.315   9.831  15.778
  1218G11  C09483440   2.183   9.785  15.777
  1218G11  C08J83441   2.088   9.800  15.669
  1218G11  C08I83442   2.007   9.682  15.667
  1218G11  C08H83443   1.952   9.660  15.538
  1218G11  C08G83444   2.033   9.740  15.447
  1218G11  C08F83445   2.051   9.768  15.302
  1218G11  C08E83446   1.967   9.704  15.207
  1218G11  C05983447   1.870   9.601  15.233
  1218G11  C05883448   1.785   9.554  15.128
  1218G11  C05783449   1.671   9.473  15.139
  1218G11  C05683450   1.638   9.435  15.272
  1218G11  C05583451   1.728   9.455  15.376
  1218G11  C05483452   1.650   9.450  15.490
  1218G11  C05383453   1.511   9.427  15.464
  1218G11  C05283454   1.400   9.433  15.545
  1218G11  C05183455   1.408   9.476  15.684
  1218G11  C05U83456   1.524   9.525  15.758
  1218G11  C05T83457   1.659   9.567  15.716
  1218G11  C06K83458   1.732   9.597  15.838
  1218G11  H00J83459   1.830   9.643  15.835
  1218G11  C06L83460   1.646   9.592  15.950
  1218G11  H00I83461   1.665   9.619  16.053
  1218G11  C05V83462   1.520   9.552  15.897
  1218G11  C06J83463   1.405   9.535  15.967
  1218G11  H00K83464   1.412   9.569  16.069
  1218G11  C05X83465   1.286   9.505  15.909
  1218G11  C06I83466   1.165   9.500  15.981
  1218G11  H00L83467   1.174   9.526  16.086
  1218G11  C04Z83468   1.044   9.478  15.918
  1218G11  C06H83469   0.924   9.491  15.990
  1218G11  H00H83470   0.923   9.515  16.095
  1218G11  C04Y83471   0.797   9.467  15.928
  1218G11  C06G83472   0.677   9.504  16.007
  1218G11  O00983473   0.684   9.546  16.122
  1218G11  O00883474   0.558   9.482  15.937
  1218G11  C04P83475   0.558   9.456  15.805
  1218G11  C04J83476   0.438   9.469  15.728
  1218G11  C04Q83477   0.311   9.489  15.778
  1218G11  H00E83478   0.302   9.498  15.885
  1218G11  C04M83479   0.194   9.522  15.694
  1218G11  C04R83480   0.061   9.556  15.740
  1218G11  H00F83481   0.040   9.550  15.846
  1218G11  C04S83482  -0.040   9.574  15.651
  1218G11  H00G83483  -0.135   9.609  15.688
  1218G11  O00783484  -0.030   9.562  15.515
  1218G11  C03V83485   0.101   9.538  15.474
  1218G11  C03U83486   0.123   9.546  15.336
  1218G11  O00683487   0.017   9.572  15.256
  1218G11  C03F83488   0.035   9.590  15.125
  1218G11  C03E83489   0.161   9.574  15.057
  1218G11  C03D83490   0.266   9.532  15.132
  1218G11  C03C83491   0.387   9.502  15.072
  1218G11  C03B83492   0.383   9.512  14.931
  1218G11  C03A83493   0.500   9.486  14.858
  1218G11  C03983494   0.621   9.448  14.921
  1218G11  C03883495   0.723   9.441  14.812
  1218G11  C03783496   0.640   9.456  14.701
  1218G11  C03683497   0.695   9.464  14.577
  1218G11  C02R83498   0.642   9.491  14.460
  1218G11  C03583499   0.754   9.496  14.372
  1218G11  C03R83500   0.872   9.475  14.442
  1218G11  C03S83501   0.989   9.550  14.405
  1218G11  C04983502   1.093   9.556  14.499
  1218G11  C04883503   1.059   9.502  14.630
  1218G11  C03P83504   0.924   9.467  14.678
  1218G11  C04783505   1.168   9.484  14.714
  1218G11  C04683506   1.173   9.434  14.845
  1218G11  C04583507   1.075   9.398  14.934
  1218G11  C03T83508   0.936   9.412  14.922
  1218G11  C04483509   0.878   9.398  15.053
  1218G11  C04383510   0.983   9.336  15.134
  1218G11  C04283511   0.956   9.358  15.269
  1218G11  C04183512   0.815   9.405  15.264
  1218G11  C04083513   0.735   9.400  15.382
  1218G11  C03Z83514   0.597   9.430  15.389
  1218G11  C04H83515   0.563   9.436  15.524
  1218G11  C04G83516   0.677   9.410  15.598
  1218G11  C03N83517   0.487   9.462  15.293
  1218G11  C03Y83518   0.362   9.489  15.353
  1218G11  C03X83519   0.340   9.497  15.496
  1218G11  C04F83520   0.784   9.398  15.516
  1218G11  C04E83521   0.915   9.396  15.580
  1218G11  C04O83522   0.920   9.424  15.718
  1218G11  C04D83523   1.037   9.381  15.514
  1218G11  C04V83524   1.157   9.410  15.584
  1218G11  C04W83525   1.163   9.450  15.717
  1218G11  C04C83526   1.061   9.365  15.375
  1218G11  C04L83527   1.205   9.365  15.364
  1218G11  C04U83528   1.279   9.356  15.236
  1218G11  C05Q83529   1.415   9.383  15.225
  1218G11  C05P83530   1.444   9.413  15.092
  1218G11  C04T83531   1.331   9.411  15.020
  1218G11  C04B83532   1.231   9.372  15.107
  1218G11  C03M83533   0.760   9.415  15.130
  1218G11  C04A83534   1.102   9.365  15.064
  1218G11  C05H83535   1.303   9.442  14.886
  1218G11  C05G83536   1.381   9.505  14.783
  1218G11  C05F83537   1.519   9.520  14.794
  1218G11  C05E83538   1.591   9.607  14.709
  1218G11  C05L83539   1.576   9.667  14.576
  1218G11  C05K83540   1.453   9.659  14.503
  1218G11  C05J83541   1.325   9.599  14.543
  1218G11  C06683542   1.459   9.730  14.376
  1218G11  C06583543   1.578   9.792  14.326
  1218G11  C06483544   1.692   9.798  14.409
  1218G11  C06N83545   1.582   9.851  14.203
  1218G11  C06983546   1.465   9.855  14.122
  1218G11  C06P83547   1.465   9.921  13.996
  1218G11  C06R83548   1.354   9.924  13.921
  1218G11  C06B83549   1.238   9.865  13.965
  1218G11  C06S83550   1.122   9.882  13.890
  1218G11  C02G83551   1.004   9.827  13.932
  1218G11  C02F83552   0.883   9.840  13.858
  1218G11  C02783553   0.883   9.919  13.745
  1218G11  C02683554   0.766   9.959  13.687
  1218G11  C00E83555   0.762  10.049  13.578
  1218G11  C00D83556   0.638  10.087  13.523
  1218G11  C00C83557   0.641  10.188  13.427
  1218G11  C00B83558   0.751  10.256  13.387
  1218G11  C01583559   0.875  10.211  13.440
  1218G11  C07F83560   0.989  10.273  13.402
  1218G11  C07E83561   1.114  10.229  13.448
  1218G11  C06W83562   1.116  10.126  13.544
  1218G11  C06V83563   0.998  10.064  13.590
  1218G11  C06X83564   1.234  10.095  13.613
  1218G11  C07B83565   1.349  10.159  13.572
  1218G11  C07C83566   1.350  10.251  13.466
  1218G11  C0FU83567   1.463  10.320  13.433
  1218G11  C0F783568   1.460  10.418  13.333
  1218G11  C0F683569   1.578  10.489  13.304
  1218G11  C0F883570   1.576  10.592  13.214
  1218G11  C0F983571   1.689  10.663  13.177
  1218G11  C0FA83572   1.680  10.766  13.086
  1218G11  C0FZ83573   1.559  10.810  13.039
  1218G11  C0G083574   1.549  10.916  12.951
  1218G11  C0GD83575   1.655  10.972  12.889
  1218G11  C0FC83576   1.781  10.935  12.940
  1218G11  C0GH83577   1.900  10.981  12.879
  1218G11  C0EY83578   2.026  10.950  12.937
  1218G11  C0EX83579   2.143  10.999  12.879
  1218G11  C0EW83580   2.265  10.958  12.928
  1218G11  C0FR83581   2.391  11.002  12.874
  1218G11  H01D83582   2.492  10.982  12.908
  1218G11  C0FS83583   2.387  11.083  12.760
  1218G11  H01C83584   2.477  11.133  12.728
  1218G11  C0GJ83585   2.262  11.124  12.707
  1218G11  H01N83586   2.256  11.202  12.633
  1218G11  C0EV83587   2.272  10.872  13.037
  1218G11  C0FT83588   2.394  10.841  13.104
  1218G11  H01E83589   2.490  10.891  13.097
  1218G11  C0EU83590   2.151  10.820  13.090
  1218G11  C0ET83591   2.150  10.723  13.194
  1218G11  C0EI83592   2.043  10.661  13.251
  1218G11  C0F183593   1.923  10.699  13.193
  1218G11  C0F083594   1.914  10.798  13.088
  1218G11  C0EH83595   2.056  10.567  13.360
  1218G11  C0EG83596   2.180  10.544  13.429
  1218G11  C0EJ83597   1.939  10.502  13.404
  1218G11  C0F383598   1.818  10.536  13.337
  1218G11  C0EK83599   1.942  10.404  13.504
  1218G11  C0EL83600   2.062  10.382  13.578
  1218G11  C0EM83601   2.041  10.285  13.681
  1218G11  C0EN83602   1.922  10.220  13.702
  1218G11  C07I83603   1.922  10.142  13.821
  1218G11  C07483604   1.804  10.094  13.867
  1218G11  C07383605   1.817  10.034  13.989
  1218G11  C07283606   1.698   9.970  14.032
  1218G11  C07583607   1.694  10.104  13.788
  1218G11  C07683608   1.699  10.178  13.671
  1218G11  C07883609   1.583  10.202  13.602
  1218G11  C07G83610   1.579  10.046  13.833
  1218G11  C07083611   1.468  10.062  13.761
  1218G11  C07Z83612   2.043  10.156  13.885
  1218G11  C07783613   1.809  10.240  13.627
  1218G11  C0EO83614   1.825  10.330  13.528
  1218G11  C0F483615   1.702  10.356  13.458
  1218G11  C0EQ83616   2.276  10.687  13.245
  1218G11  C0FQ83617   2.139  11.078  12.763
  1218G11  C0GI83618   2.015  11.113  12.714
  1218G11  H01L83619   2.000  11.185  12.635
  1218G11  C0EZ83620   2.031  10.856  13.038
  1218G11  C0GG83621   1.901  11.069  12.773
  1218G11  C0GF83622   1.772  11.119  12.734
  1218G11  H01M83623   1.754  11.184  12.649
  1218G11  C0GE83624   1.655  11.068  12.790
  1218G11  H01K83625   1.561  11.085  12.738
  1218G11  O00J83626   1.428  10.964  12.907
  1218G11  C0GA83627   1.315  10.910  12.957
  1218G11  C0G983628   1.189  10.969  12.922
  1218G11  H01H83629   1.188  11.053  12.854
  1218G11  C0G883630   1.074  10.924  12.982
  1218G11  C0G783631   0.946  10.987  12.967
  1218G11  H01I83632   0.936  11.074  12.905
  1218G11  O00I83633   0.835  10.945  13.033
  1218G11  C0G683634   0.844  10.824  13.093
  1218G11  H01J83635   0.751  10.807  13.146
  1218G11  C02D83636   0.966  10.750  13.108
  1218G11  C02C83637   0.972  10.623  13.171
  1218G11  C01783638   0.857  10.559  13.219
  1218G11  C01683639   0.858  10.434  13.288
  1218G11  O00183640   0.735  10.607  13.187
  1218G11  C01883641   0.617  10.563  13.244
  1218G11  C00983642   0.613  10.427  13.287
  1218G11  C00883643   0.497  10.350  13.322
  1218G11  C00783644   0.348  10.372  13.316
  1218G11  C00683645   0.299  10.503  13.303
  1218G11  C00583646   0.161  10.541  13.312
  1218G11  C00483647   0.055  10.460  13.365
  1218G11  C00383648   0.055  10.340  13.453
  1218G11  C00283649  -0.063  10.309  13.521
  1218G11  C00P83650  -0.067  10.212  13.623
  1218G11  C00O83651  -0.173  10.191  13.704
  1218G11  C00N83652  -0.171  10.103  13.813
  1218G11  C01083653  -0.278  10.097  13.903
  1218G11  C01183654  -0.269  10.019  14.014
  1218G11  C01Q83655  -0.371  10.018  14.111
  1218G11  C01U83656  -0.488  10.091  14.089
  1218G11  C01283657  -0.492  10.169  13.969
  1218G11  H00083658  -0.580  10.225  13.941
  1218G11  C01V83659  -0.592  10.084  14.190
  1218G11  H00783660  -0.683  10.139  14.174
  1218G11  O00583661  -0.579  10.013  14.308
  1218G11  C01W83662  -0.471   9.930  14.315
  1218G11  C03183663  -0.470   9.842  14.419
  1218G11  C03283664  -0.359   9.760  14.448
  1218G11  H00A83665  -0.362   9.690  14.531
  1218G11  C03383666  -0.255   9.759  14.351
  1218G11  H00B83667  -0.177   9.687  14.370
  1218G11  C01O83668  -0.253   9.852  14.242
  1218G11  C01N83669  -0.144   9.862  14.154
  1218G11  C01M83670  -0.019   9.788  14.181
  1218G11  C01L83671   0.056   9.720  14.296
  1218G11  C01K83672   0.171   9.665  14.230
  1218G11  C01Y83673   0.288   9.619  14.298
  1218G11  C02I83674   0.285   9.610  14.433
  1218G11  C02N83675   0.404   9.559  14.494
  1218G11  C02M83676   0.395   9.545  14.638
  1218G11  C02L83677   0.286   9.584  14.713
  1218G11  C02K83678   0.180   9.644  14.648
  1218G11  C02U83679   0.072   9.693  14.727
  1218G11  C02V83680   0.063   9.661  14.858
  1218G11  C03H83681  -0.065   9.672  14.921
  1218G11  H00C83682  -0.154   9.701  14.865
  1218G11  C02W83683  -0.009   9.784  14.668
  1218G11  C02X83684  -0.001   9.807  14.538
  1218G11  C02Y83685  -0.074   9.924  14.510
  1218G11  H00883686  -0.094   9.978  14.419
  1218G11  C02Z83687  -0.145   9.956  14.637
  1218G11  O00483688  -0.233  10.043  14.665
  1218G11  O00383689  -0.077   9.882  14.738
  1218G11  C02J83690   0.174   9.666  14.504
  1218G11  C01Z83691   0.401   9.618  14.216
  1218G11  C02083692   0.406   9.676  14.088
  1218G11  C01I83693   0.291   9.721  14.027
  1218G11  C01H83694   0.289   9.808  13.918
  1218G11  C00K83695   0.169   9.872  13.883
  1218G11  C01S83696   0.062   9.872  13.961
  1218G11  C01483697  -0.051   9.947  13.948
  1218G11  C00J83698   0.167   9.958  13.773
  1218G11  C00I83699   0.282   9.979  13.705
  1218G11  C00H83700   0.403   9.919  13.743
  1218G11  C00G83701   0.522   9.961  13.693
  1218G11  C00S83702   0.273  10.070  13.599
  1218G11  C00T83703   0.393  10.088  13.534
  1218G11  C00U83704   0.398  10.186  13.436
  1218G11  C00R83705   0.157  10.145  13.570
  1218G11  C00L83706   0.048  10.030  13.749
  1218G11  C02883707   0.407   9.836  13.858
  1218G11  C02383708   0.528   9.792  13.908
  1218G11  C02483709   0.646   9.825  13.845
  1218G11  C02183710   0.523   9.710  14.021
  1218G11  C02283711   0.640   9.670  14.079
  1218G11  C02H83712   0.766   9.706  14.019
  1218G11  C03083713   0.883   9.688  14.087
  1218G11  C03483714   0.878   9.623  14.208
  1218G11  C02P83715   0.636   9.597  14.198
  1218G11  C02B83716   0.517   9.576  14.274
  1218G11  C01J83717   0.175   9.705  14.101
  1218G11  C01X83718   0.064   9.733  14.440
  1218G11  C01T83719   0.070   9.789  14.076
  1218G11  H00983720  -0.558   9.845  14.482
  1218G11  C01P83721  -0.364   9.933  14.226
  1218G11  C01R83722  -0.154   9.945  14.042
  1218G11  C00Z83723  -0.387  10.178  13.880
  1218G11  O00083724  -0.393  10.255  13.766
  1218G11  C00M83725  -0.060  10.019  13.832
  1218G11  C00Y83726  -0.286  10.263  13.680
  1218G11  C01383727  -0.301  10.344  13.567
  1218G11  H00183728  -0.394  10.390  13.537
  1218G11  C00Q83729   0.044  10.125  13.643
  1218G11  C00183730  -0.187  10.370  13.485
  1218G11  C00083731  -0.187  10.456  13.376
  1218G11  H00683732  -0.275  10.496  13.328
  1218G11  C00W83733   0.169  10.254  13.478
  1218G11  C01G83734  -0.066  10.501  13.322
  1218G11  H00583735  -0.073  10.580  13.248
  1218G11  C01C83736   0.146  10.677  13.276
  1218G11  H00283737   0.064  10.746  13.285
  1218G11  C01B83738   0.275  10.727  13.252
  1218G11  C01D83739   0.313  10.860  13.216
  1218G11  H00383740   0.248  10.940  13.185
  1218G11  C01E83741   0.445  10.881  13.202
  1218G11  H00483742   0.484  10.980  13.180
  1218G11  O00283743   0.545  10.780  13.207
  1218G11  C01A83744   0.372  10.619  13.265
  1218G11  C00V83745   0.295  10.273  13.403
  1218G11  C01983746   0.507  10.652  13.238
  1218G11  C02E83747   1.091  10.556  13.197
  1218G11  C0FX83748   1.210  10.611  13.149
  1218G11  C0FW83749   1.332  10.560  13.188
  1218G11  C0GB83750   1.201  10.730  13.081
  1218G11  C0G383751   1.097  10.446  13.282
  1218G11  C07H83752   1.220  10.398  13.323
  1218G11  C0GC83753   1.080  10.803  13.057
  1218G11  C0G283754   1.319  10.795  13.038
  1218G11  C0G183755   1.442  10.741  13.072
  1218G11  C0FB83756   1.789  10.830  13.033
  1218G11  C0F283757   1.813  10.632  13.235
  1218G11  C0FY83758   1.450  10.624  13.150
  1218G11  C0F583759   1.702  10.456  13.364
  1218G11  C0FV83760   1.339  10.451  13.277
  1218G11  C07983761   1.583  10.290  13.491
  1218G11  C07A83762   1.468  10.138  13.643
  1218G11  C06Y83763   1.239  10.013  13.728
  1218G11  C07D83764   1.230  10.293  13.408
  1218G11  C01F83765   0.979  10.384  13.324
  1218G11  C00A83766   0.740  10.368  13.311
  1218G11  C00X83767   0.516  10.228  13.383
  1218G11  C00F83768   0.518  10.051  13.583
  1218G11  C02983769   0.878  10.106  13.533
  1218G11  C02583770   0.643   9.913  13.736
  1218G11  C06U83771   1.000   9.975  13.699
  1218G11  C02A83772   0.766   9.786  13.904
  1218G11  C05Y83773   1.004   9.752  14.047
  1218G11  C05Z83774   1.117   9.745  14.128
  1218G11  C06083775   1.112   9.675  14.247
  1218G11  C06283776   1.227   9.669  14.334
  1218G11  C06T83777   1.118   9.956  13.770
  1218G11  C06A83778   1.235   9.798  14.087
  1218G11  C06Z83779   1.355   9.996  13.803
  1218G11  C06Q83780   1.584   9.974  13.952
  1218G11  C06883781   1.348   9.795  14.171
  1218G11  C06783782   1.348   9.727  14.295
  1218G11  C06383783   1.694   9.740  14.532
  1218G11  C06C83784   1.808   9.761  14.607
  1218G11  C06D83785   1.811   9.718  14.739
  1218G11  C06E83786   1.906   9.749  14.841
  1218G11  C07Q83787   2.007   9.819  14.794
  1218G11  C07P83788   2.022   9.855  14.662
  1218G11  C07T83789   2.135   9.910  14.617
  1218G11  C07U83790   2.140   9.952  14.485
  1218G11  C07V83791   2.255  10.018  14.444
  1218G11  C08483792   2.362  10.037  14.532
  1218G11  C08C83793   2.355   9.987  14.662
  1218G11  C08B83794   2.462  10.011  14.746
  1218G11  C08A83795   2.437   9.980  14.878
  1218G11  C08983796   2.320   9.932  14.931
  1218G11  C08883797   2.299   9.929  15.073
  1218G11  C08783798   2.182   9.865  15.121
  1218G11  C08683799   2.091   9.826  15.029
  1218G11  C08X83800   2.391   9.984  15.166
  1218G11  C08T83801   2.523  10.025  15.113
  1218G11  C08D83802   2.222   9.899  14.840
  1218G11  C08U83803   2.538  10.016  14.969
  1218G11  C08V83804   2.657  10.066  14.927
  1218G11  C0CY83805   2.682  10.102  14.792
  1218G11  C0CX83806   2.783  10.188  14.766
  1218G11  C0CW83807   2.791  10.232  14.633
  1218G11  C0CV83808   2.698  10.197  14.538
  1218G11  C0D483809   2.589  10.120  14.578
  1218G11  C0CU83810   2.702  10.255  14.418
  1218G11  C0CT83811   2.799  10.346  14.377
  1218G11  C0CS83812   2.897  10.376  14.471
  1218G11  C0D683813   2.597  10.220  14.338
  1218G11  C0EC83814   2.486  10.148  14.367
  1218G11  C07X83815   2.377  10.128  14.276
  1218G11  C0DL83816   2.604  10.270  14.208
  1218G11  C0DK83817   2.512  10.237  14.112
  1218G11  C0DN83818   2.552  10.300  13.998
  1218G11  C0D883819   2.704  10.354  14.153
  1218G11  C08W83820   2.730  10.122  15.034
  1218G11  C0CQ83821   2.845  10.210  15.005
  1218G11  C09383822   2.584  10.069  14.704
  1218G11  C09283823   2.476  10.102  14.493
  1218G11  C08583824   2.238   9.931  14.706
  1218G11  C07S83825   2.104   9.854  14.888
  1218G11  C06F83826   1.900   9.703  14.974
  1218G11  C07O83827   1.918   9.836  14.570
  1218G11  C07N83828   1.919   9.878  14.445
  1218G11  C05D83829   1.705   9.639  14.781
  1218G11  C05C83830   1.711   9.577  14.904
  1218G11  C05N83831   1.594   9.505  14.915
  1218G11  C05M83832   1.301   9.531  14.672
  1218G11  C05I83833   1.216   9.603  14.460
  1218G11  C06183834   0.994   9.616  14.284
  1218G11  C02Q83835   0.756   9.574  14.256
  1218G11  C02O83836   0.515   9.544  14.408
  1218G11  C03Q83837   0.833   9.464  14.569
  1218G11  C03O83838   0.869   9.443  14.807
  1218G11  C03L83839   0.626   9.438  15.071
  1218G11  C02S83840   0.508   9.497  14.718
  1218G11  C02T83841   0.281   9.568  14.853
  1218G11  C03K83842   0.499   9.455  15.152
  1218G11  C03I83843   0.166   9.598  14.923
  1218G11  C03G83844  -0.074   9.639  15.060
  1218G11  H00D83845  -0.160   9.651  15.125
  1218G11  C03J83846   0.251   9.524  15.272
  1218G11  C03W83847   0.215   9.518  15.556
  1218G11  C04I83848   0.439   9.468  15.585
  1218G11  C04K83849   0.673   9.433  15.733
  1218G11  C04N83850   0.798   9.436  15.793
  1218G11  C04X83851   1.041   9.445  15.785
  1218G11  C05083852   1.291   9.477  15.770
  1218G11  C05W83853   1.265   9.400  15.497
  1218G11  C05S83854   1.713   9.539  15.581
  1218G11  C05R83855   1.516   9.396  15.322
  1218G11  C05O83856   1.568   9.459  15.046
  1218G11  C05B83857   1.807   9.608  15.006
  1218G11  C05A83858   1.817   9.563  15.364
  1218G11  C07R83859   1.984   9.747  15.072
  1218G11  C08N83860   2.160   9.854  15.258
  1218G11  C08M83861   2.252   9.917  15.350
  1218G11  C08L83862   2.228   9.900  15.484
  1218G11  C09183863   1.831   9.595  15.498
  1218G11  C09K83864   2.087   9.582  15.739
  1218G11  H00M83865   2.084   9.477  15.711
  1218G11  C08K83866   2.123   9.817  15.531
  1218G11  C09J83867   2.175   9.648  15.830
  1218G11  C09I83868   2.304   9.624  15.882
  1218G11  C09L83869   2.354   9.519  15.965
  1218G11  H00N83870   2.299   9.430  15.992
  1218G11  C09Q83871   2.480   9.537  16.013
  1218G11  H00O83872   2.520   9.461  16.080
  1218G11  O00B83873   2.565   9.639  15.985
  1218G11  C09G83874   2.523   9.744  15.901
  1218G11  C09F83875   2.621   9.848  15.877
  1218G11  O00A83876   2.744   9.812  15.929
  1218G11  C09P83877   2.833   9.909  15.940
  1218G11  H00P83878   2.884   9.923  16.034
  1218G11  C09O83879   2.852   9.998  15.828
  1218G11  C09D83880   2.733  10.040  15.763
  1218G11  C09C83881   2.719  10.133  15.649
  1218G11  C09N83882   2.815  10.192  15.555
  1218G11  C09T83883   2.948  10.147  15.558
  1218G11  C09S83884   3.025  10.092  15.664
  1218G11  C0CP83885   3.155  10.125  15.635
  1218G11  C0CN83886   3.176  10.189  15.515
  1218G11  C0CO83887   3.307  10.213  15.467
  1218G11  H01483888   3.321  10.265  15.373
  1218G11  C0CZ83889   3.412  10.178  15.556
  1218G11  H01583890   3.514  10.199  15.526
  1218G11  C0D083891   3.390  10.114  15.684
  1218G11  C0G583892   3.495  10.071  15.775
  1218G11  H01F83893   3.597  10.081  15.741
  1218G11  C0G483894   3.460   9.999  15.883
  1218G11  H01G83895   3.530   9.952  15.951
  1218G11  O00H83896   3.331   9.980  15.926
  1218G11  C0D283897   3.235  10.018  15.842
  1218G11  C09V83898   3.098   9.993  15.876
  1218G11  H00Q83899   3.091   9.941  15.971
  1218G11  C0D183900   3.257  10.088  15.723
  1218G11  C09R83901   2.989  10.030  15.787
  1218G11  C09H83902   2.390   9.737  15.853
  1218G11  C09E83903   2.609   9.962  15.794
  1218G11  C09B83904   2.603  10.170  15.591
  1218G11  C08Z83905   2.317   9.967  15.565
  1218G11  C08O83906   2.364   9.999  15.301
  1218G11  C09A83907   2.612  10.243  15.469
  1218G11  C08S83908   2.646  10.090  15.151
  1218G11  C09983909   2.749  10.256  15.446
  1218G11  C09U83910   3.040  10.207  15.466
  1218G11  C0BO83911   3.194  10.510  15.125
  1218G11  C0CL83912   2.928  10.264  15.108
  1218G11  C0D383913   2.866  10.240  14.867
  1218G11  C0D583914   2.888  10.324  14.601
  1218G11  C0BR83915   3.145  10.469  14.894
  1218G11  C0BQ83916   3.222  10.529  14.990
  1218G11  C0BL83917   3.341  10.697  15.177
  1218G11  C0AF83918   3.543  10.861  15.106
  1218G11  C0BH83919   3.467  10.704  14.786
  1218G11  C0BG83920   3.488  10.740  14.654
  1218G11  C0BD83921   3.690  10.867  14.718
  1218G11  C0AG83922   3.657  10.922  15.077
  1218G11  C0AI83923   3.815  11.095  15.148
  1218G11  C0AV83924   3.943  11.308  15.046
  1218G11  C0BB83925   3.980  11.076  14.766
  1218G11  O00C83926   4.079  11.404  14.857
  1218G11  C0BC83927   4.026  11.120  14.641
  1218G11  C0B983928   3.798  10.951  14.688
  1218G11  O00E83929   3.726  11.003  14.327
  1218G11  C0CA83930   3.628  10.994  14.241
  1218G11  O00F83931   3.632  11.053  14.133
  1218G11  C0BF83932   3.597  10.822  14.622
  1218G11  C0C583933   3.510  10.916  14.277
  1218G11  C0C483934   3.399  10.916  14.186
  1218G11  H01183935   3.386  10.979  14.099
  1218G11  C0C883936   3.402  10.696  14.556
  1218G11  C0C283937   3.290  10.827  14.223
  1218G11  C0C383938   3.166  10.809  14.154
  1218G11  C0DY83939   3.104  10.896  14.061
  1218G11  H01683940   3.133  10.992  14.021
  1218G11  C0DX83941   2.971  10.837  14.032
  1218G11  C0DW83942   2.850  10.918  14.011
  1218G11  C0BY83943   3.199  10.580  14.496
  1218G11  C0DB83944   3.079  10.711  14.185
  1218G11  C0CC83945   2.989  10.475  14.440
  1218G11  C0D783946   2.797  10.410  14.250
  1218G11  C0DZ83947   2.964  10.715  14.103
  1218G11  C0DM83948   2.676  10.372  14.016
  1218G11  C0DQ83949   2.722  10.721  13.931
  1218G11  C0DV83950   2.742  10.855  13.946
  1218G11  C0E083951   2.828  11.065  14.001
  1218G11  C0FO83952   2.752  11.186  13.696
  1218G11  C0E383953   2.915  11.180  13.985
  1218G11  H01783954   3.023  11.183  13.992
  1218G11  C0GV83955   2.849  11.276  13.659
  1218G11  C0ES83956   2.708  11.079  13.604
  1218G11  C0GQ83957   2.940  11.163  13.316
  1218G11  C0FJ83958   2.778  10.868  13.164
  1218G11  C0ED83959   2.636  10.875  13.404
  1218G11  C0ER83960   2.392  10.747  13.206
  1218G11  C0EP83961   2.289  10.623  13.369
  1218G11  C0E683962   2.533  10.760  13.603
  1218G11  C0DE83963   2.498  10.487  13.753
  1218G11  C0EA83964   2.177  10.458  13.542
  1218G11  C0DF83965   2.450  10.356  13.775
  1218G11  C08083966   2.116  10.242  13.794
  1218G11  C0DO83967   2.456  10.293  13.898
  1218G11  C0DJ83968   2.391  10.172  14.143
  1218G11  C07K83969   2.052  10.097  14.015
  1218G11  C07W83970   2.263  10.061  14.313
  1218G11  C08383971   2.033   9.940  14.401
  1218G11  C07J83972   1.934  10.040  14.061
  1218G11  C06O83973   1.696   9.912  14.158
  1218G11  C06M83974   1.807   9.857  14.360
  1228G11  C07183975   9.315  10.098  11.316
  1228G11  C07L83976   9.406  10.159  11.405
  1228G11  C07M83977   9.544  10.144  11.390
  1228G11  C07Y83978   9.632  10.216  11.470
  1228G11  C08183979   9.587  10.291  11.581
  1228G11  C08283980   9.684  10.350  11.665
  1228G11  C0DI83981   9.669  10.447  11.775
  1228G11  C0DH83982   9.555  10.493  11.852
  1228G11  C0DG83983   9.593  10.602  11.937
  1228G11  C0E983984   9.543  10.642  12.069
  1228G11  C0E883985   9.668  10.695  12.130
  1228G11  C0E783986   9.687  10.777  12.251
  1228G11  C0EB83987   9.569  10.823  12.330
  1228G11  C0EF83988   9.561  10.926  12.420
  1228G11  C0EE83989   9.633  11.043  12.436
  1228G11  C0FD83990   9.559  11.169  12.449
  1228G11  C0FE83991   9.421  11.180  12.417
  1228G11  H01B83992   9.372  11.097  12.369
  1228G11  C0FF83993   9.357  11.301  12.445
  1228G11  H01A83994   9.251  11.312  12.425
  1228G11  C0FG83995   9.430  11.413  12.484
  1228G11  H01883996   9.373  11.505  12.490
  1228G11  C0FH83997   9.570  11.408  12.507
  1228G11  C0FI83998   9.652  11.520  12.544
  1228G11  H01983999   9.602  11.614  12.563
  1228G11  O00K84000   9.786  11.518  12.556
  1228G11  C0FL84001   9.846  11.390  12.538
  1228G11  C0FK84002   9.774  11.268  12.504
  1228G11  C0FM84003   9.841  11.149  12.494
  1228G11  C0FN84004   9.979  11.146  12.525
  1228G11  C0FP84005  10.044  11.265  12.557
  1228G11  C0GO84006  10.183  11.262  12.584
  1228G11  C0GN84007  10.266  11.372  12.590
  1228G11  C0GR84008  10.194  11.495  12.596
  1228G11  C0GS84009  10.265  11.616  12.614
  1228G11  H01Q84010  10.207  11.706  12.630
  1228G11  C0GT84011  10.402  11.617  12.597
  1228G11  H01O84012  10.460  11.708  12.591
  1228G11  C0GU84013  10.462  11.493  12.585
  1228G11  H01P84014  10.570  11.491  12.577
  1228G11  O00L84015  10.056  11.500  12.591
  1228G11  C0GM84016  10.400  11.369  12.583
  1228G11  C0GL84017  10.456  11.241  12.564
  1228G11  H01R84018  10.561  11.242  12.539
  1228G11  C0GK84019  10.383  11.124  12.578
  1228G11  C0GP84020  10.412  10.983  12.561
  1228G11  C0E284021  10.282  10.919  12.580
  1228G11  C0E184022  10.286  10.808  12.494
  1228G11  C0DU84023  10.180  10.781  12.392
  1228G11  C0DT84024  10.042  10.817  12.388
  1228G11  C0E484025   9.984  10.924  12.450
  1228G11  C0E584026   9.853  10.925  12.407
  1228G11  C0DS84027   9.951  10.763  12.293
  1228G11  C0DR84028  10.011  10.688  12.192
  1228G11  C0DD84029   9.943  10.638  12.077
  1228G11  C0DC84030  10.056  10.576  11.996
  1228G11  C0DP84031  10.187  10.596  12.057
  1228G11  C0DA84032  10.318  10.557  12.004
  1228G11  C0D984033  10.361  10.462  11.890
  1228G11  C0CR84034  10.498  10.420  11.869
  1228G11  C0C084035  10.598  10.472  11.950
  1228G11  C0BZ84036  10.735  10.442  11.942
  1228G11  C0C184037  10.830  10.514  12.012
  1228G11  C0C784038  10.964  10.474  12.002
  1228G11  C0C684039  11.058  10.549  12.070
  1228G11  C0C984040  11.188  10.509  12.062
  1228G11  C0B884041  11.288  10.594  12.120
  1228G11  C0B784042  11.424  10.564  12.121
  1228G11  C0B684043  11.544  10.638  12.164
  1228G11  C0B584044  11.555  10.777  12.128
  1228G11  H00Z84045  11.478  10.848  12.102
  1228G11  C0B484046  11.694  10.805  12.104
  1228G11  H01084047  11.735  10.895  12.060
  1228G11  C0B384048  11.770  10.685  12.143
  1228G11  C0AP84049  11.876  10.603  12.078
  1228G11  C0AQ84050  11.816  10.476  12.065
  1228G11  C0AR84051  11.861  10.374  11.980
  1228G11  C0AS84052  11.767  10.281  11.951
  1228G11  C0AT84053  11.628  10.288  11.983
  1228G11  C0BA84054  11.584  10.392  12.063
  1228G11  C0AU84055  11.535  10.220  11.910
  1228G11  C0BE84056  11.403  10.252  11.917
  1228G11  C0BI84057  11.315  10.189  11.829
  1228G11  C0BJ84058  11.360  10.094  11.738
  1228G11  C0BK84059  11.267  10.032  11.656
  1228G11  C0BW84060  11.134  10.073  11.649
  1228G11  C0BV84061  11.088  10.167  11.744
  1228G11  C0BU84062  10.951  10.201  11.754
  1228G11  C0BX84063  10.909  10.300  11.847
  1228G11  C0BT84064  10.856  10.142  11.669
  1228G11  C0CD84065  10.720  10.182  11.676
  1228G11  C0CB84066  10.681  10.280  11.771
  1228G11  C0CE84067  10.634  10.132  11.584
  1228G11  C0CK84068  10.668  10.031  11.490
  1228G11  C0BS84069  10.806   9.995  11.482
  1228G11  C0CJ84070  10.853   9.904  11.381
  1228G11  C0BP84071  10.992   9.863  11.376
  1228G11  C0CI84072  11.042   9.769  11.281
  1228G11  C0CH84073  11.184   9.748  11.286
  1228G11  H01284074  11.218   9.690  11.201
  1228G11  C0BN84075  11.267   9.792  11.384
  1228G11  C0CG84076  11.400   9.748  11.384
  1228G11  C0CF84077  11.453   9.648  11.293
  1228G11  H01384078  11.389   9.594  11.226
  1228G11  O00G84079  11.584   9.611  11.285
  1228G11  C0AA84080  11.671   9.698  11.349
  1228G11  C0A984081  11.806   9.676  11.326
  1228G11  H00U84082  11.828   9.587  11.268
  1228G11  C0A884083  11.901   9.770  11.367
  1228G11  H00V84084  11.999   9.738  11.336
  1228G11  C0A784085  11.870   9.875  11.453
  1228G11  C0A684086  11.729   9.884  11.497
  1228G11  C0A584087  11.679   9.971  11.595
  1228G11  C0A484088  11.772  10.047  11.681
  1228G11  C0A384089  11.907  10.095  11.680
  1228G11  C0A284090  11.989  10.074  11.573
  1228G11  C0A184091  12.126  10.123  11.582
  1228G11  C0A084092  12.208  10.228  11.655
  1228G11  C09Z84093  12.338  10.245  11.615
  1228G11  C09Y84094  12.426  10.344  11.665
  1228G11  H00Y84095  12.523  10.367  11.625
  1228G11  C09X84096  12.367  10.441  11.751
  1228G11  C09W84097  12.443  10.563  11.778
  1228G11  H00R84098  12.537  10.573  11.728
  1228G11  C0AX84099  12.383  10.668  11.844
  1228G11  H00S84100  12.430  10.765  11.841
  1228G11  C0AW84101  12.261  10.650  11.903
  1228G11  H00T84102  12.228  10.731  11.966
  1228G11  C0AN84103  12.184  10.530  11.886
  1228G11  C0AO84104  12.048  10.518  11.931
  1228G11  C0AM84105  12.233  10.429  11.802
  1228G11  C0B284106  12.408  10.166  11.521
  1228G11  O00D84107  12.529  10.176  11.490
  1228G11  C0B184108  12.336  10.063  11.458
  1228G11  H00W84109  12.389   9.993  11.395
  1228G11  C0AL84110  12.155  10.317  11.758
  1228G11  C0AK84111  12.028  10.299  11.818
  1228G11  C0B084112  12.201  10.050  11.488
  1228G11  C0AZ84113  12.113   9.949  11.433
  1228G11  H00X84114  12.157   9.871  11.372
  1228G11  C0AJ84115  11.934  10.194  11.783
  1228G11  C0AH84116  11.715  10.110  11.791
  1228G11  C0AE84117  11.543   9.978  11.623
  1228G11  C0AD84118  11.449   9.914  11.547
  1228G11  C0AY84119  11.980   9.969  11.477
  1228G11  C0AB84120  11.633   9.804  11.434
  1228G11  C0AC84121  11.496   9.824  11.460
  1228G11  C0BM84122  11.215   9.878  11.477
  1228G11  C0CM84123  10.948   9.700  11.195
  1228G11  C09M84124  10.816   9.759  11.186
  1228G11  C09884125  10.745   9.726  11.065
  1228G11  C08R84126  10.602   9.722  11.021
  1228G11  C08Q84127  10.574   9.688  10.885
  1228G11  C08P84128  10.470   9.624  10.815
  1228G11  C08Y84129  10.505   9.541  10.706
  1228G11  C09784130  10.634   9.502  10.695
  1228G11  C09684131  10.648   9.377  10.651
  1228G11  C09084132  10.518   9.340  10.600
  1228G11  C09584133  10.481   9.206  10.571
  1228G11  C09484134  10.345   9.164  10.540
  1228G11  C08J84135  10.218   9.230  10.550
  1228G11  C08I84136  10.117   9.131  10.562
  1228G11  C08H84137  10.002   9.195  10.632
  1228G11  C08G84138  10.050   9.323  10.685
  1228G11  C08F84139  10.006   9.448  10.751
  1228G11  C08E84140   9.868   9.475  10.757
  1228G11  C05984141   9.769   9.408  10.680
  1228G11  C05884142   9.641   9.462  10.672
  1228G11  C05784143   9.531   9.404  10.607
  1228G11  C05684144   9.556   9.284  10.547
  1228G11  C05584145   9.679   9.241  10.527
  1228G11  C05484146   9.670   9.105  10.490
  1228G11  C05384147   9.534   9.061  10.483
  1228G11  C05284148   9.471   8.931  10.469
  1228G11  C05184149   9.559   8.821  10.458
  1228G11  C05U84150   9.713   8.816  10.467
  1228G11  C05T84151   9.818   8.905  10.511
  1228G11  C06K84152   9.935   8.856  10.449
  1228G11  H00J84153  10.026   8.914  10.453
  1228G11  C06L84154   9.915   8.724  10.394
  1228G11  H00I84155   9.988   8.667  10.338
  1228G11  C05V84156   9.777   8.703  10.413
  1228G11  C06J84157   9.714   8.584  10.378
  1228G11  H00K84158   9.770   8.495  10.353
  1228G11  C05X84159   9.576   8.575  10.386
  1228G11  C06I84160   9.499   8.454  10.360
  1228G11  H00L84161   9.553   8.367  10.327
  1228G11  C04Z84162   9.358   8.438  10.374
  1228G11  C06H84163   9.286   8.316  10.346
  1228G11  H00H84164   9.340   8.229  10.311
  1228G11  C04Y84165   9.144   8.314  10.362
  1228G11  C06G84166   9.066   8.193  10.318
  1228G11  O00984167   9.110   8.092  10.271
  1228G11  O00884168   8.931   8.199  10.341
  1228G11  C04P84169   8.859   8.303  10.400
  1228G11  C04J84170   8.720   8.298  10.441
  1228G11  C04Q84171   8.634   8.190  10.444
  1228G11  H00E84172   8.678   8.098  10.410
  1228G11  C04M84173   8.500   8.200  10.492
  1228G11  C04R84174   8.409   8.090  10.497
  1228G11  H00F84175   8.439   7.990  10.467
  1228G11  C04S84176   8.281   8.107  10.537
  1228G11  H00G84177   8.217   8.020  10.536
  1228G11  O00784178   8.236   8.223  10.593
  1228G11  C03V84179   8.321   8.329  10.588
  1228G11  C03U84180   8.273   8.454  10.627
  1228G11  O00684181   8.143   8.458  10.672
  1228G11  C03F84182   8.097   8.580  10.709
  1228G11  C03E84183   8.178   8.693  10.730
  1228G11  C03D84184   8.307   8.691  10.677
  1228G11  C03C84185   8.387   8.800  10.683
  1228G11  C03B84186   8.324   8.913  10.738
  1228G11  C03A84187   8.394   9.036  10.740
  1228G11  C03984188   8.522   9.050  10.688
  1228G11  C03884189   8.558   9.188  10.712
  1228G11  C03784190   8.443   9.245  10.768
  1228G11  C03684191   8.446   9.365  10.816
  1228G11  C02R84192   8.343   9.431  10.878
  1228G11  C03584193   8.404   9.555  10.901
  1228G11  C03R84194   8.535   9.570  10.854
  1228G11  C03S84195   8.633   9.643  10.919
  1228G11  C04984196   8.757   9.623  10.889
  1228G11  C04884197   8.780   9.506  10.803
  1228G11  C03P84198   8.682   9.409  10.768
  1228G11  C04784199   8.909   9.501  10.758
  1228G11  C04684200   8.957   9.413  10.670
  1228G11  C04584201   8.895   9.296  10.618
  1228G11  C03T84202   8.779   9.227  10.633
  1228G11  C04484203   8.787   9.094  10.575
  1228G11  C04384204   8.904   9.089  10.503
  1228G11  C04284205   8.955   8.955  10.513
  1228G11  C04184206   8.834   8.876  10.547
  1228G11  C04084207   8.827   8.739  10.536
  1228G11  C03Z84208   8.707   8.660  10.547
  1228G11  C04H84209   8.743   8.533  10.498
  1228G11  C04G84210   8.875   8.533  10.462
  1228G11  C03N84211   8.567   8.675  10.586
  1228G11  C03Y84212   8.487   8.558  10.582
  1228G11  C03X84213   8.534   8.431  10.533
  1228G11  C04F84214   8.933   8.653  10.487
  1228G11  C04E84215   9.070   8.666  10.462
  1228G11  C04O84216   9.144   8.546  10.431
  1228G11  C04D84217   9.140   8.784  10.471
  1228G11  C04V84218   9.278   8.786  10.456
  1228G11  C04W84219   9.360   8.675  10.432
  1228G11  C04C84220   9.092   8.916  10.502
  1228G11  C04L84221   9.212   8.998  10.500
  1228G11  C04U84222   9.219   9.141  10.497
  1228G11  C05Q84223   9.333   9.220  10.519
  1228G11  C05P84224   9.303   9.339  10.573
  1228G11  C04T84225   9.166   9.343  10.590
  1228G11  C04B84226   9.117   9.231  10.534
  1228G11  C03M84227   8.723   8.964  10.584
  1228G11  C04A84228   8.982   9.205  10.552
  1228G11  C05H84229   9.092   9.441  10.653
  1228G11  C05G84230   9.125   9.553  10.737
  1228G11  C05F84231   9.255   9.616  10.742
  1228G11  C05E84232   9.287   9.704  10.853
  1228G11  C05L84233   9.228   9.790  10.954
  1228G11  C05K84234   9.088   9.789  10.973
  1228G11  C05J84235   8.988   9.698  10.907
  1228G11  C06684236   9.041   9.883  11.070
  1228G11  C06584237   9.133   9.961  11.149
  1228G11  C06484238   9.267   9.946  11.128
  1228G11  C06N84239   9.087  10.041  11.254
  1228G11  C06984240   8.949  10.046  11.281
  1228G11  C06P84241   8.902  10.130  11.380
  1228G11  C06R84242   8.762  10.139  11.407
  1228G11  C06B84243   8.668  10.062  11.338
  1228G11  C06S84244   8.535  10.070  11.376
  1228G11  C02G84245   8.447   9.992  11.305
  1228G11  C02F84246   8.314   9.984  11.349
  1228G11  C02784247   8.272  10.047  11.459
  1228G11  C02684248   8.143  10.026  11.513
  1228G11  C00E84249   8.108  10.091  11.630
  1228G11  C00D84250   7.983  10.068  11.677
  1228G11  C00C84251   7.941  10.136  11.788
  1228G11  C00B84252   8.022  10.212  11.861
  1228G11  C01584253   8.152  10.220  11.820
  1228G11  C07F84254   8.241  10.291  11.898
  1228G11  C07E84255   8.374  10.308  11.855
  1228G11  C06W84256   8.411  10.253  11.730
  1228G11  C06V84257   8.318  10.186  11.650
  1228G11  C06X84258   8.542  10.264  11.688
  1228G11  C07B84259   8.638  10.326  11.770
  1228G11  C07C84260   8.597  10.386  11.888
  1228G11  C0FU84261   8.691  10.453  11.967
  1228G11  C0F784262   8.649  10.514  12.083
  1228G11  C0F684263   8.743  10.582  12.165
  1228G11  C0F884264   8.701  10.647  12.281
  1228G11  C0F984265   8.799  10.703  12.365
  1228G11  C0FA84266   8.753  10.762  12.482
  1228G11  C0FZ84267   8.621  10.775  12.507
  1228G11  C0G084268   8.578  10.836  12.626
  1228G11  C0GD84269   8.666  10.897  12.714
  1228G11  C0FC84270   8.803  10.892  12.681
  1228G11  C0GH84271   8.895  10.944  12.774
  1228G11  C0EY84272   9.032  10.931  12.748
  1228G11  C0EX84273   9.124  10.986  12.837
  1228G11  C0EW84274   9.263  10.982  12.804
  1228G11  C0FR84275   9.361  11.033  12.898
  1228G11  H01D84276   9.468  11.023  12.891
  1228G11  C0FS84277   9.317  11.086  13.022
  1228G11  H01C84278   9.393  11.115  13.093
  1228G11  C0GJ84279   9.178  11.096  13.047
  1228G11  H01N84280   9.143  11.128  13.144
  1228G11  C0EV84281   9.300  10.927  12.684
  1228G11  C0FT84282   9.429  10.951  12.635
  1228G11  H01E84283   9.502  11.014  12.685
  1228G11  C0EU84284   9.206  10.869  12.599
  1228G11  C0ET84285   9.244  10.808  12.481
  1228G11  C0EI84286   9.159  10.756  12.384
  1228G11  C0F184287   9.029  10.758  12.421
  1228G11  C0F084288   8.982  10.820  12.537
  1228G11  C0EH84289   9.215  10.702  12.262
  1228G11  C0EG84290   9.358  10.702  12.232
  1228G11  C0EJ84291   9.122  10.643  12.177
  1228G11  C0F384292   8.979  10.642  12.211
  1228G11  C0EK84293   9.164  10.584  12.055
  1228G11  C0EL84294   9.304  10.570  12.024
  1228G11  C0EM84295   9.318  10.496  11.899
  1228G11  C0EN84296   9.213  10.450  11.829
  1228G11  C07I84297   9.253  10.377  11.719
  1228G11  C07484298   9.164  10.318  11.634
  1228G11  C07384299   9.217  10.247  11.527
  1228G11  C07284300   9.126  10.191  11.436
  1228G11  C07584301   9.028  10.332  11.659
  1228G11  C07684302   8.991  10.398  11.775
  1228G11  C07884303   8.859  10.401  11.812
  1228G11  C07G84304   8.941  10.272  11.570
  1228G11  C07084305   8.809  10.274  11.605
  1228G11  C07Z84306   9.392  10.375  11.709
  1228G11  C07784307   9.084  10.460  11.867
  1228G11  C0EO84308   9.056  10.522  11.982
  1228G11  C0F484309   8.917  10.532  12.011
  1228G11  C0EQ84310   9.375  10.819  12.438
  1228G11  C0FQ84311   9.086  11.042  12.961
  1228G11  C0GI84312   8.946  11.053  12.982
  1228G11  H01L84313   8.919  11.110  13.069
  1228G11  C0EZ84314   9.072  10.875  12.628
  1228G11  C0GG84315   8.851  11.002  12.897
  1228G11  C0GF84316   8.707  11.014  12.923
  1228G11  H01M84317   8.665  11.063  13.009
  1228G11  C0GE84318   8.623  10.960  12.830
  1228G11  H01K84319   8.517  10.970  12.847
  1228G11  O00J84320   8.446  10.840  12.660
  1228G11  C0GA84321   8.358  10.765  12.586
  1228G11  C0G984322   8.230  10.742  12.641
  1228G11  H01H84323   8.213  10.791  12.736
  1228G11  C0G884324   8.142  10.655  12.576
  1228G11  C0G784325   8.010  10.625  12.628
  1228G11  H01I84326   7.987  10.659  12.728
  1228G11  O00I84327   7.912  10.564  12.554
  1228G11  C0G684328   7.955  10.500  12.444
  1228G11  H01J84329   7.899  10.409  12.428
  1228G11  C02D84330   8.083  10.525  12.382
  1228G11  C02C84331   8.120  10.470  12.260
  1228G11  C01784332   8.028  10.398  12.181
  1228G11  C01684333   8.063  10.341  12.057
  1228G11  O00184334   7.893  10.389  12.213
  1228G11  C01884335   7.804  10.299  12.157
  1228G11  C00984336   7.845  10.243  12.035
  1228G11  C00884337   7.770  10.143  11.961
  1228G11  C00784338   7.649  10.061  11.972
  1228G11  C00684339   7.555  10.092  12.072
  1228G11  C00584340   7.430  10.022  12.085
  1228G11  C00484341   7.371   9.919  11.995
  1228G11  C00384342   7.411   9.855  11.860
  1228G11  C00284343   7.329   9.762  11.796
  1228G11  C00P84344   7.368   9.694  11.680
  1228G11  C00O84345   7.288   9.603  11.610
  1228G11  C00N84346   7.334   9.526  11.501
  1228G11  C01084347   7.257   9.424  11.440
  1228G11  C01184348   7.308   9.345  11.341
  1228G11  C01Q84349   7.234   9.247  11.284
  1228G11  C01U84350   7.105   9.217  11.335
  1228G11  C01284351   7.058   9.301  11.440
  1228G11  H00084352   6.957   9.298  11.479
  1228G11  C01V84353   7.024   9.115  11.264
  1228G11  H00784354   6.936   9.071  11.308
  1228G11  O00584355   7.078   9.043  11.157
  1228G11  C01W84356   7.198   9.083  11.103
  1228G11  C03184357   7.237   9.009  10.992
  1228G11  C03284358   7.362   9.047  10.931
  1228G11  H00A84359   7.403   9.005  10.841
  1228G11  C03384360   7.439   9.150  10.988
  1228G11  H00B84361   7.526   9.183  10.933
  1228G11  C01O84362   7.408   9.202  11.116
  1228G11  C01N84363   7.489   9.291  11.180
  1228G11  C01M84364   7.622   9.329  11.127
  1228G11  C01L84365   7.740   9.280  11.048
  1228G11  C01K84366   7.828   9.388  11.042
  1228G11  C01Y84367   7.959   9.381  11.012
  1228G11  C02I84368   8.006   9.267  10.950
  1228G11  C02N84369   8.143   9.277  10.904
  1228G11  C02M84370   8.200   9.159  10.847
  1228G11  C02L84371   8.128   9.039  10.839
  1228G11  C02K84372   7.995   9.032  10.893
  1228G11  C02U84373   7.926   8.917  10.884
  1228G11  C02V84374   7.979   8.806  10.819
  1228G11  C03H84375   7.901   8.696  10.780
  1228G11  H00C84376   7.794   8.700  10.795
  1228G11  C02W84377   7.809   8.900  10.953
  1228G11  C02X84378   7.753   9.014  11.008
  1228G11  C02Y84379   7.640   8.963  11.078
  1228G11  H00884380   7.558   9.003  11.137
  1228G11  C02Z84381   7.638   8.817  11.059
  1228G11  O00484382   7.554   8.739  11.105
  1228G11  O00384383   7.742   8.785  10.979
  1228G11  C02J84384   7.930   9.148  10.949
  1228G11  C01Z84385   8.031   9.497  11.044
  1228G11  C02084386   7.980   9.602  11.126
  1228G11  C01I84387   7.847   9.603  11.154
  1228G11  C01H84388   7.795   9.681  11.259
  1228G11  C00K84389   7.682   9.641  11.320
  1228G11  C01S84390   7.615   9.524  11.280
  1228G11  C01484391   7.502   9.478  11.339
  1228G11  C00J84392   7.636   9.703  11.433
  1228G11  C00I84393   7.714   9.802  11.488
  1228G11  C00H84394   7.837   9.828  11.433
  1228G11  C00G84395   7.927   9.916  11.494
  1228G11  C00S84396   7.683   9.857  11.609
  1228G11  C00T84397   7.769   9.949  11.658
  1228G11  C00U84398   7.736  10.013  11.779
  1228G11  C00R84399   7.561   9.830  11.672
  1228G11  C00L84400   7.526   9.656  11.505
  1228G11  C02884401   7.883   9.765  11.321
  1228G11  C02384402   8.013   9.786  11.274
  1228G11  C02484403   8.094   9.880  11.330
  1228G11  C02184404   8.061   9.705  11.174
  1228G11  C02284405   8.189   9.719  11.125
  1228G11  C02H84406   8.269   9.820  11.177
  1228G11  C03084407   8.402   9.823  11.138
  1228G11  C03484408   8.449   9.735  11.043
  1228G11  C02P84409   8.237   9.622  11.039
  1228G11  C02B84410   8.160   9.512  10.998
  1228G11  C01J84411   7.769   9.501  11.100
  1228G11  C01X84412   7.795   9.150  11.009
  1228G11  C01T84413   7.663   9.459  11.165
  1228G11  H00984414   7.178   8.927  10.953
  1228G11  C01P84415   7.280   9.183  11.169
  1228G11  C01R84416   7.436   9.369  11.288
  1228G11  C00Z84417   7.130   9.408  11.486
  1228G11  O00084418   7.078   9.483  11.591
  1228G11  C00M84419   7.457   9.549  11.450
  1228G11  C00Y84420   7.157   9.577  11.654
  1228G11  C01384421   7.121   9.639  11.772
  1228G11  H00184422   7.024   9.613  11.811
  1228G11  C00Q84423   7.483   9.729  11.619
  1228G11  C00184424   7.201   9.730  11.840
  1228G11  C00084425   7.159   9.802  11.954
  1228G11  H00684426   7.057   9.805  11.990
  1228G11  C00W84427   7.529   9.889  11.795
  1228G11  C01G84428   7.245   9.881  12.036
  1228G11  H00584429   7.207   9.911  12.133
  1228G11  C01C84430   7.367  10.071  12.205
  1228G11  H00284431   7.277  10.044  12.259
  1228G11  C01B84432   7.455  10.172  12.260
  1228G11  C01D84433   7.441  10.250  12.377
  1228G11  H00384434   7.358  10.252  12.446
  1228G11  C01E84435   7.543  10.330  12.405
  1228G11  H00484436   7.535  10.382  12.499
  1228G11  O00284437   7.658  10.347  12.331
  1228G11  C01A84438   7.574  10.185  12.179
  1228G11  C00V84439   7.625   9.981  11.854
  1228G11  C01984440   7.679  10.273  12.216
  1228G11  C02E84441   8.250  10.488  12.211
  1228G11  C0FX84442   8.347  10.560  12.280
  1228G11  C0FW84443   8.474  10.581  12.231
  1228G11  C0GB84444   8.307  10.622  12.397
  1228G11  C0G384445   8.290  10.428  12.089
  1228G11  C07H84446   8.423  10.439  12.049
  1228G11  C0GC84447   8.176  10.606  12.448
  1228G11  C0G284448   8.395  10.704  12.467
  1228G11  C0G184449   8.527  10.711  12.429
  1228G11  C0FB84450   8.845  10.827  12.566
  1228G11  C0F284451   8.936  10.701  12.332
  1228G11  C0FY84452   8.565  10.650  12.308
  1228G11  C0F584453   8.881  10.582  12.133
  1228G11  C0FV84454   8.516  10.508  12.120
  1228G11  C07984455   8.824  10.462  11.928
  1228G11  C07A84456   8.770  10.336  11.726
  1228G11  C06Y84457   8.588  10.202  11.569
  1228G11  C07D84458   8.462  10.383  11.931
  1228G11  C01F84459   8.200  10.356  12.013
  1228G11  C00A84460   7.973  10.266  11.985
  1228G11  C00X84461   7.816  10.107  11.837
  1228G11  C00F84462   7.893   9.988  11.609
  1228G11  C02984463   8.192  10.170  11.700
  1228G11  C02584464   8.055   9.943  11.441
  1228G11  C06U84465   8.360  10.130  11.528
  1228G11  C02A84466   8.224   9.897  11.286
  1228G11  C05Y84467   8.492   9.911  11.197
  1228G11  C05Z84468   8.628   9.906  11.162
  1228G11  C06084469   8.677   9.823  11.063
  1228G11  C06284470   8.813   9.813  11.031
  1228G11  C06T84471   8.496  10.138  11.489
  1228G11  C06A84472   8.718   9.980  11.235
  1228G11  C06Z84473   8.718  10.208  11.525
  1228G11  C06Q84474   8.989  10.200  11.464
  1228G11  C06884475   8.855   9.976  11.202
  1228G11  C06784476   8.903   9.895  11.099
  1228G11  C06384477   9.321   9.861  11.034
  1228G11  C06C84478   9.458   9.853  11.019
  1228G11  C06D84479   9.519   9.769  10.931
  1228G11  C06E84480   9.651   9.727  10.924
  1228G11  C07Q84481   9.736   9.797  11.004
  1228G11  C07P84482   9.685   9.891  11.090
  1228G11  C07T84483   9.773   9.957  11.171
  1228G11  C07U84484   9.728  10.036  11.273
  1228G11  C07V84485   9.817  10.108  11.349
  1228G11  C08484486   9.955  10.084  11.339
  1228G11  C08C84487   9.998   9.990  11.249
  1228G11  C08B84488  10.132   9.947  11.246
  1228G11  C08A84489  10.172   9.861  11.150
  1228G11  C08984490  10.092   9.804  11.057
  1228G11  C08884491  10.141   9.707  10.976
  1228G11  C08784492  10.059   9.633  10.892
  1228G11  C08684493   9.920   9.665  10.909
  1228G11  C08X84494  10.279   9.683  10.962
  1228G11  C08T84495  10.367   9.744  11.063
  1228G11  C08D84496   9.957   9.835  11.066
  1228G11  C08U84497  10.304   9.818  11.154
  1228G11  C08V84498  10.394   9.873  11.243
  1228G11  C0CY84499  10.356   9.972  11.332
  1228G11  C0CX84500  10.451  10.025  11.412
  1228G11  C0CW84501  10.407  10.122  11.500
  1228G11  C0CV84502  10.270  10.157  11.511
  1228G11  C0D484503  10.183  10.104  11.421
  1228G11  C0CU84504  10.229  10.246  11.606
  1228G11  C0CT84505  10.317  10.297  11.705
  1228G11  C0CS84506  10.451  10.260  11.693
  1228G11  C0D684507  10.099  10.278  11.604
  1228G11  C0EC84508   9.999  10.232  11.513
  1228G11  C07X84509   9.861  10.256  11.528
  1228G11  C0DL84510  10.058  10.358  11.703
  1228G11  C0DK84511   9.921  10.388  11.714
  1228G11  C0DN84512   9.910  10.473  11.815
  1228G11  C0D884513  10.136  10.424  11.800
  1228G11  C08W84514  10.524   9.832  11.220
  1228G11  C0CQ84515  10.629   9.885  11.302
  1228G11  C09384516  10.225  10.009  11.333
  1228G11  C09284517  10.049  10.138  11.423
  1228G11  C08584518   9.910   9.936  11.158
  1228G11  C07S84519   9.870   9.770  10.986
  1228G11  C06F84520   9.696   9.628  10.837
  1228G11  C07O84521   9.548   9.919  11.100
  1228G11  C07N84522   9.503  10.003  11.198
  1228G11  C05D84523   9.430   9.705  10.847
  1228G11  C05C84524   9.479   9.615  10.760
  1228G11  C05N84525   9.372   9.553  10.695
  1228G11  C05M84526   9.015   9.593  10.812
  1228G11  C05I84527   8.855   9.707  10.947
  1228G11  C06184528   8.583   9.741  11.006
  1228G11  C02Q84529   8.361   9.640  10.999
  1228G11  C02O84530   8.212   9.400  10.930
  1228G11  C03Q84531   8.564   9.443  10.813
  1228G11  C03O84532   8.680   9.278  10.703
  1228G11  C03L84533   8.591   8.938  10.629
  1228G11  C02S84534   8.333   9.158  10.781
  1228G11  C02T84535   8.187   8.922  10.788
  1228G11  C03K84536   8.517   8.804  10.625
  1228G11  C03I84537   8.115   8.807  10.782
  1228G11  C03G84538   7.958   8.585  10.726
  1228G11  H00D84539   7.910   8.491  10.702
  1228G11  C03J84540   8.357   8.568  10.625
  1228G11  C03W84541   8.455   8.317  10.538
  1228G11  C04I84542   8.663   8.416  10.490
  1228G11  C04K84543   8.935   8.420  10.412
  1228G11  C04N84544   9.073   8.424  10.402
  1228G11  C04X84545   9.289   8.553  10.414
  1228G11  C05084546   9.501   8.694  10.428
  1228G11  C05W84547   9.330   8.917  10.475
  1228G11  C05S84548   9.795   9.046  10.533
  1228G11  C05R84549   9.464   9.184  10.503
  1228G11  C05O84550   9.395   9.438  10.626
  1228G11  C05B84551   9.609   9.567  10.752
  1228G11  C05A84552   9.779   9.275  10.619
  1228G11  C07R84553   9.827   9.582  10.840
  1228G11  C08N84554  10.105   9.535  10.812
  1228G11  C08M84555  10.244   9.523  10.784
  1228G11  C08L84556  10.287   9.431  10.690
  1228G11  C09184557   9.866   9.161  10.609
  1228G11  C09K84558  10.186   9.006  10.596
  1228G11  H00M84559  10.146   8.933  10.665
  1228G11  C08K84560  10.192   9.331  10.643
  1228G11  C09J84561  10.327   9.030  10.571
  1228G11  C09I84562  10.460   8.972  10.589
  1228G11  C09L84563  10.511   8.843  10.556
  1228G11  H00N84564  10.438   8.767  10.531
  1228G11  C09Q84565  10.645   8.833  10.553
  1228G11  H00O84566  10.689   8.738  10.527
  1228G11  O00B84567  10.738   8.933  10.573
  1228G11  C09G84568  10.694   9.060  10.596
  1228G11  C09F84569  10.795   9.153  10.634
  1228G11  O00A84570  10.919   9.099  10.635
  1228G11  C09P84571  11.010   9.198  10.654
  1228G11  H00P84572  11.040   9.259  10.570
  1228G11  C09O84573  10.991   9.278  10.770
  1228G11  C09D84574  10.869   9.355  10.752
  1228G11  C09C84575  10.836   9.487  10.806
  1228G11  C09N84576  10.885   9.567  10.917
  1228G11  C09T84577  10.976   9.516  11.009
  1228G11  C09S84578  11.057   9.395  10.991
  1228G11  C0CP84579  11.112   9.376  11.119
  1228G11  C0CN84580  11.085   9.482  11.204
  1228G11  C0CO84581  11.138   9.474  11.336
  1228G11  H01484582  11.108   9.547  11.410
  1228G11  C0CZ84583  11.219   9.362  11.367
  1228G11  H01584584  11.268   9.372  11.462
  1228G11  C0D084585  11.264   9.264  11.272
  1228G11  C0G584586  11.368   9.159  11.284
  1228G11  H01F84587  11.427   9.163  11.374
  1228G11  C0G484588  11.395   9.075  11.178
  1228G11  H01G84589  11.480   9.011  11.194
  1228G11  O00H84590  11.323   9.066  11.062
  1228G11  C0D284591  11.237   9.179  11.039
  1228G11  C09V84592  11.161   9.187  10.918
  1228G11  H00Q84593  11.172   9.109  10.845
  1228G11  C0D184594  11.204   9.270  11.142
  1228G11  C09R84595  11.065   9.293  10.891
  1228G11  C09H84596  10.551   9.082  10.593
  1228G11  C09E84597  10.771   9.294  10.671
  1228G11  C09B84598  10.731   9.561  10.766
  1228G11  C08Z84599  10.428   9.432  10.665
  1228G11  C08O84600  10.335   9.615  10.853
  1228G11  C09A84601  10.707   9.678  10.837
  1228G11  C08S84602  10.504   9.751  11.105
  1228G11  C09984603  10.804   9.683  10.943
  1228G11  C09U84604  11.002   9.575  11.136
  1228G11  C0BO84605  11.084   9.920  11.473
  1228G11  C0CL84606  10.766   9.853  11.286
  1228G11  C0D384607  10.582   9.980  11.400
  1228G11  C0D584608  10.499  10.170  11.598
  1228G11  C0BR84609  10.901  10.048  11.574
  1228G11  C0BQ84610  11.038  10.009  11.567
  1228G11  C0BL84611  11.308   9.933  11.568
  1228G11  C0AF84612  11.492  10.060  11.724
  1228G11  C0BH84613  11.178  10.221  11.836
  1228G11  C0BG84614  11.134  10.328  11.917
  1228G11  C0BD84615  11.361  10.357  12.000
  1228G11  C0AG84616  11.575  10.125  11.813
  1228G11  C0AI84617  11.808  10.193  11.849
  1228G11  C0AV84618  11.982  10.394  11.912
  1228G11  C0BB84619  11.688  10.470  12.118
  1228G11  O00C84620  11.993  10.625  12.006
  1228G11  C0BC84621  11.670  10.588  12.188
  1228G11  C0B984622  11.455  10.436  12.072
  1228G11  O00E84623  11.249  10.707  12.179
  1228G11  C0CA84624  11.129  10.738  12.210
  1228G11  O00F84625  11.115  10.826  12.293
  1228G11  C0BF84626  11.230  10.395  11.993
  1228G11  C0C584627  11.027  10.656  12.150
  1228G11  C0C484628  10.897  10.691  12.170
  1228G11  H01184629  10.876  10.769  12.242
  1228G11  C0C884630  11.002  10.366  11.922
  1228G11  C0C284631  10.797  10.616  12.101
  1228G11  C0C384632  10.661  10.643  12.110
  1228G11  C0DY84633  10.597  10.730  12.198
  1228G11  H01684634  10.627  10.802  12.272
  1228G11  C0DX84635  10.462  10.700  12.187
  1228G11  C0DW84636  10.376  10.745  12.286
  1228G11  C0BY84637  10.776  10.343  11.857
  1228G11  C0DB84638  10.564  10.569  12.040
  1228G11  C0CC84639  10.541  10.318  11.781
  1228G11  C0D784640  10.276  10.395  11.799
  1228G11  C0DZ84641  10.437  10.612  12.072
  1228G11  C0DM84642  10.039  10.501  11.874
  1228G11  C0DQ84643  10.150  10.670  12.177
  1228G11  C0DV84644  10.235  10.725  12.277
  1228G11  C0E084645  10.406  10.803  12.419
  1228G11  C0FO84646  10.182  11.023  12.573
  1228G11  C0E384647  10.475  10.926  12.449
  1228G11  H01784648  10.544  10.977  12.384
  1228G11  C0GV84649  10.244  11.143  12.601
  1228G11  C0ES84650  10.048  11.025  12.522
  1228G11  C0GQ84651   9.982  11.389  12.561
  1228G11  C0FJ84652   9.631  11.284  12.484
  1228G11  C0ED84653   9.771  11.036  12.442
  1228G11  C0ER84654   9.458  10.904  12.510
  1228G11  C0EP84655   9.435  10.777  12.328
  1228G11  C0E684656   9.821  10.817  12.309
  1228G11  C0DE84657   9.795  10.658  12.051
  1228G11  C0EA84658   9.399  10.642  12.106
  1228G11  C0DF84659   9.733  10.615  11.932
  1228G11  C08084660   9.428  10.458  11.816
  1228G11  C0DO84661   9.779  10.506  11.843
  1228G11  C0DJ84662   9.820  10.336  11.630
  1228G11  C07K84663   9.447  10.300  11.598
  1228G11  C07W84664   9.767  10.195  11.447
  1228G11  C08384665   9.592  10.064  11.286
  1228G11  C07J84666   9.355  10.236  11.508
  1228G11  C06O84667   9.177  10.112  11.334
  1228G11  C06M84668   9.359  10.013  11.218
  1238G11  C07184669   7.159   1.676   9.153
  1238G11  C07L84670   7.042   1.648   9.221
  1238G11  C07M84671   6.948   1.748   9.249
  1238G11  C07Y84672   6.830   1.714   9.319
  1238G11  C08184673   6.795   1.581   9.350
  1238G11  C08284674   6.669   1.557   9.410
  1238G11  C0DI84675   6.593   1.429   9.407
  1238G11  C0DH84676   6.630   1.294   9.388
  1238G11  C0DG84677   6.517   1.207   9.390
  1238G11  C0E984678   6.491   1.072   9.445
  1238G11  C0E884679   6.359   1.078   9.511
  1238G11  C0E784680   6.265   0.974   9.564
  1238G11  C0EB84681   6.311   0.833   9.561
  1238G11  C0EF84682   6.228   0.717   9.581
  1238G11  C0EE84683   6.089   0.699   9.570
  1238G11  C0FD84684   6.036   0.593   9.491
  1238G11  C0FE84685   6.114   0.514   9.396
  1238G11  H01B84686   6.219   0.530   9.379
  1238G11  C0FF84687   6.061   0.403   9.328
  1238G11  H01A84688   6.119   0.342   9.261
  1238G11  C0FG84689   5.929   0.368   9.347
  1238G11  H01884690   5.889   0.281   9.298
  1238G11  C0FH84691   5.846   0.438   9.438
  1238G11  C0FI84692   5.709   0.406   9.475
  1238G11  H01984693   5.669   0.317   9.429
  1238G11  O00K84694   5.630   0.487   9.549
  1238G11  C0FL84695   5.691   0.590   9.609
  1238G11  C0FK84696   5.829   0.626   9.598
  1238G11  C0FM84697   5.878   0.737   9.668
  1238G11  C0FN84698   5.791   0.805   9.763
  1238G11  C0FP84699   5.655   0.762   9.772
  1238G11  C0GO84700   5.567   0.830   9.852
  1238G11  C0GN84701   5.426   0.820   9.850
  1238G11  C0GR84702   5.375   0.707   9.772
  1238G11  C0GS84703   5.239   0.683   9.748
  1238G11  H01Q84704   5.199   0.613   9.677
  1238G11  C0GT84705   5.149   0.774   9.801
  1238G11  H01O84706   5.042   0.765   9.792
  1238G11  C0GU84707   5.192   0.883   9.881
  1238G11  H01P84708   5.119   0.952   9.920
  1238G11  O00L84709   5.463   0.624   9.706
  1238G11  C0GM84710   5.331   0.908   9.904
  1238G11  C0GL84711   5.398   1.021   9.967
  1238G11  H01R84712   5.331   1.101   9.993
  1238G11  C0GK84713   5.537   1.022   9.997
  1238G11  C0GP84714   5.629   1.127  10.035
  1238G11  C0E284715   5.762   1.075  10.021
  1238G11  C0E184716   5.846   1.190   9.992
  1238G11  C0DU84717   5.946   1.200   9.891
  1238G11  C0DT84718   6.010   1.098   9.816
  1238G11  C0E484719   5.958   0.972   9.793
  1238G11  C0E584720   6.045   0.911   9.699
  1238G11  C0DS84721   6.103   1.120   9.713
  1238G11  C0DR84722   6.118   1.249   9.668
  1238G11  C0DD84723   6.202   1.294   9.568
  1238G11  C0DC84724   6.160   1.439   9.555
  1238G11  C0DP84725   6.044   1.472   9.635
  1238G11  C0DA84726   5.970   1.599   9.645
  1238G11  C0D984727   6.003   1.727   9.589
  1238G11  C0CR84728   5.905   1.836   9.586
  1238G11  C0C084729   5.771   1.809   9.619
  1238G11  C0BZ84730   5.665   1.898   9.620
  1238G11  C0C184731   5.537   1.863   9.661
  1238G11  C0C784732   5.438   1.961   9.656
  1238G11  C0C684733   5.311   1.931   9.708
  1238G11  C0C984734   5.214   2.030   9.699
  1238G11  C0B884735   5.087   1.996   9.752
  1238G11  C0B784736   4.978   2.089   9.747
  1238G11  C0B684737   4.847   2.089   9.808
  1238G11  C0B584738   4.806   2.030   9.936
  1238G11  H00Z84739   4.858   1.948   9.982
  1238G11  C0B484740   4.689   2.107   9.985
  1238G11  H01084741   4.649   2.104  10.085
  1238G11  C0B384742   4.663   2.213   9.890
  1238G11  C0AP84743   4.630   2.356   9.888
  1238G11  C0AQ84744   4.714   2.407   9.794
  1238G11  C0AR84745   4.753   2.540   9.789
  1238G11  C0AS84746   4.865   2.557   9.723
  1238G11  C0AT84747   4.957   2.460   9.684
  1238G11  C0BA84748   4.917   2.327   9.690
  1238G11  C0AU84749   5.087   2.485   9.659
  1238G11  C0BE84750   5.180   2.388   9.645
  1238G11  C0BI84751   5.309   2.426   9.616
  1238G11  C0BJ84752   5.347   2.565   9.611
  1238G11  C0BK84753   5.476   2.598   9.576
  1238G11  C0BW84754   5.568   2.496   9.551
  1238G11  C0BV84755   5.534   2.359   9.567
  1238G11  C0BU84756   5.628   2.263   9.552
  1238G11  C0BX84757   5.596   2.131   9.571
  1238G11  C0BT84758   5.754   2.297   9.521
  1238G11  C0CD84759   5.851   2.197   9.503
  1238G11  C0CB84760   5.827   2.063   9.539
  1238G11  C0CE84761   5.980   2.228   9.462
  1238G11  C0CK84762   6.008   2.362   9.422
  1238G11  C0BS84763   5.912   2.459   9.426
  1238G11  C0CJ84764   5.932   2.586   9.371
  1238G11  C0BP84765   5.834   2.681   9.384
  1238G11  C0CI84766   5.842   2.811   9.325
  1238G11  C0CH84767   5.756   2.912   9.370
  1238G11  H01284768   5.764   3.015   9.338
  1238G11  C0BN84769   5.645   2.891   9.455
  1238G11  C0CG84770   5.561   2.997   9.498
  1238G11  C0CF84771   5.586   3.137   9.486
  1238G11  H01384772   5.683   3.167   9.450
  1238G11  O00G84773   5.509   3.237   9.542
  1238G11  C0AA84774   5.397   3.199   9.615
  1238G11  C0A984775   5.321   3.304   9.673
  1238G11  H00U84776   5.357   3.406   9.673
  1238G11  C0A884777   5.199   3.271   9.727
  1238G11  H00V84778   5.148   3.359   9.765
  1238G11  C0A784779   5.153   3.138   9.740
  1238G11  C0A684780   5.229   3.030   9.675
  1238G11  C0A584781   5.193   2.897   9.676
  1238G11  C0A484782   5.060   2.854   9.711
  1238G11  C0A384783   4.942   2.906   9.777
  1238G11  C0A284784   4.939   3.031   9.840
  1238G11  C0A184785   4.829   3.067   9.927
  1238G11  C0A084786   4.712   3.002   9.990
  1238G11  C09Z84787   4.622   3.089  10.063
  1238G11  C09Y84788   4.496   3.041  10.117
  1238G11  H00Y84789   4.434   3.109  10.175
  1238G11  C09X84790   4.468   2.902  10.103
  1238G11  C09W84791   4.351   2.866  10.168
  1238G11  H00R84792   4.301   2.934  10.235
  1238G11  C0AX84793   4.310   2.731  10.169
  1238G11  H00S84794   4.217   2.708  10.218
  1238G11  C0AW84795   4.400   2.638  10.113
  1238G11  H00T84796   4.373   2.534  10.109
  1238G11  C0AN84797   4.515   2.677  10.036
  1238G11  C0AO84798   4.591   2.589   9.954
  1238G11  C0AM84799   4.554   2.815  10.039
  1238G11  C0B284800   4.646   3.228  10.084
  1238G11  O00D84801   4.566   3.297  10.144
  1238G11  C0B184802   4.764   3.291  10.018
  1238G11  H00W84803   4.784   3.396  10.033
  1238G11  C0AL84804   4.670   2.866   9.970
  1238G11  C0AK84805   4.732   2.770   9.884
  1238G11  C0B084806   4.851   3.206   9.947
  1238G11  C0AZ84807   4.975   3.246   9.890
  1238G11  H00X84808   5.002   3.350   9.896
  1238G11  C0AJ84809   4.851   2.798   9.802
  1238G11  C0AH84810   5.035   2.716   9.690
  1238G11  C0AE84811   5.283   2.795   9.637
  1238G11  C0AD84812   5.409   2.830   9.587
  1238G11  C0AY84813   5.033   3.131   9.820
  1238G11  C0AB84814   5.357   3.059   9.623
  1238G11  C0AC84815   5.442   2.963   9.569
  1238G11  C0BM84816   5.624   2.757   9.492
  1238G11  C0CM84817   5.936   2.819   9.218
  1238G11  C09M84818   6.059   2.749   9.236
  1238G11  C09884819   6.180   2.822   9.200
  1238G11  C08R84820   6.315   2.772   9.175
  1238G11  C08Q84821   6.404   2.868   9.129
  1238G11  C08P84822   6.528   2.870   9.044
  1238G11  C08Y84823   6.534   2.981   8.964
  1238G11  C09784824   6.422   3.067   8.942
  1238G11  C09684825   6.429   3.115   8.813
  1238G11  C09084826   6.565   3.092   8.771
  1238G11  C09584827   6.624   3.139   8.645
  1238G11  C09484828   6.760   3.128   8.608
  1238G11  C08J84829   6.858   3.023   8.651
  1238G11  C08I84830   6.925   2.967   8.535
  1238G11  C08H84831   6.983   2.842   8.561
  1238G11  C08G84832   6.921   2.800   8.694
  1238G11  C08F84833   6.923   2.685   8.788
  1238G11  C08E84834   7.035   2.601   8.791
  1238G11  C05984835   7.154   2.619   8.722
  1238G11  C05884836   7.266   2.534   8.749
  1238G11  C05784837   7.398   2.538   8.689
  1238G11  C05684838   7.417   2.641   8.601
  1238G11  C05584839   7.324   2.737   8.582
  1238G11  C05484840   7.349   2.808   8.465
  1238G11  C05384841   7.466   2.743   8.404
  1238G11  C05284842   7.520   2.762   8.269
  1238G11  C05184843   7.456   2.848   8.172
  1238G11  C05U84844   7.331   2.924   8.188
  1238G11  C05T84845   7.228   2.926   8.291
  1238G11  C06K84846   7.141   3.034   8.256
  1238G11  H00J84847   7.054   3.062   8.314
  1238G11  C06L84848   7.179   3.093   8.129
  1238G11  H00I84849   7.121   3.168   8.077
  1238G11  C05V84850   7.293   3.017   8.088
  1238G11  C06J84851   7.366   3.035   7.974
  1238G11  H00K84852   7.339   3.108   7.899
  1238G11  C05X84853   7.483   2.960   7.942
  1238G11  C06I84854   7.558   2.968   7.822
  1238G11  H00L84855   7.520   3.041   7.753
  1238G11  C04Z84856   7.673   2.885   7.786
  1238G11  C06H84857   7.738   2.887   7.656
  1238G11  H00H84858   7.707   2.960   7.582
  1238G11  C04Y84859   7.838   2.785   7.627
  1238G11  C06G84860   7.895   2.784   7.492
  1238G11  O00984861   7.870   2.864   7.404
  1238G11  O00884862   7.979   2.675   7.454
  1238G11  C04P84863   8.022   2.588   7.553
  1238G11  C04J84864   8.134   2.505   7.535
  1238G11  C04Q84865   8.218   2.488   7.421
  1238G11  H00E84866   8.199   2.553   7.337
  1238G11  C04M84867   8.325   2.396   7.415
  1238G11  C04R84868   8.410   2.379   7.306
  1238G11  H00F84869   8.419   2.441   7.219
  1238G11  C04S84870   8.508   2.287   7.305
  1238G11  H00G84871   8.571   2.277   7.218
  1238G11  O00784872   8.531   2.194   7.407
  1238G11  C03V84873   8.446   2.213   7.514
  1238G11  C03U84874   8.470   2.125   7.616
  1238G11  O00684875   8.585   2.049   7.609
  1238G11  C03F84876   8.586   1.943   7.700
  1238G11  C03E84877   8.505   1.940   7.819
  1238G11  C03D84878   8.411   2.039   7.840
  1238G11  C03C84879   8.328   2.032   7.950
  1238G11  C03B84880   8.346   1.925   8.039
  1238G11  C03A84881   8.287   1.928   8.163
  1238G11  C03984882   8.196   2.027   8.197
  1238G11  C03884883   8.149   1.985   8.334
  1238G11  C03784884   8.225   1.875   8.366
  1238G11  C03684885   8.201   1.803   8.479
  1238G11  C02R84886   8.243   1.675   8.505
  1238G11  C03584887   8.181   1.650   8.627
  1238G11  C03R84888   8.093   1.750   8.664
  1238G11  C03S84889   7.968   1.725   8.723
  1238G11  C04984890   7.873   1.829   8.717
  1238G11  C04884891   7.898   1.936   8.625
  1238G11  C03P84892   8.001   1.935   8.529
  1238G11  C04784893   7.800   2.038   8.635
  1238G11  C04684894   7.797   2.156   8.567
  1238G11  C04584895   7.887   2.210   8.472
  1238G11  C03T84896   7.981   2.146   8.394
  1238G11  C04484897   8.017   2.240   8.293
  1238G11  C04384898   7.961   2.364   8.328
  1238G11  C04284899   7.939   2.442   8.209
  1238G11  C04184900   8.018   2.361   8.107
  1238G11  C04084901   8.026   2.398   7.971
  1238G11  C03Z84902   8.122   2.344   7.875
  1238G11  C04H84903   8.102   2.423   7.765
  1238G11  C04G84904   8.001   2.513   7.782
  1238G11  C03N84905   8.220   2.237   7.873
  1238G11  C03Y84906   8.295   2.234   7.749
  1238G11  C03X84907   8.268   2.317   7.639
  1238G11  C04F84908   7.954   2.510   7.914
  1238G11  C04E84909   7.857   2.608   7.952
  1238G11  C04O84910   7.818   2.703   7.854
  1238G11  C04D84911   7.803   2.628   8.079
  1238G11  C04V84912   7.694   2.708   8.100
  1238G11  C04W84913   7.640   2.792   8.004
  1238G11  C04C84914   7.840   2.556   8.196
  1238G11  C04L84915   7.731   2.588   8.293
  1238G11  C04U84916   7.727   2.548   8.436
  1238G11  C05Q84917   7.614   2.566   8.517
  1238G11  C05P84918   7.606   2.462   8.609
  1238G11  C04T84919   7.696   2.367   8.580
  1238G11  C04B84920   7.771   2.424   8.474
  1238G11  C03M84921   8.071   2.236   8.161
  1238G11  C04A84922   7.872   2.342   8.426
  1238G11  C05H84923   7.698   2.232   8.616
  1238G11  C05G84924   7.623   2.158   8.710
  1238G11  C05F84925   7.545   2.215   8.806
  1238G11  C05E84926   7.455   2.138   8.888
  1238G11  C05L84927   7.446   2.001   8.931
  1238G11  C05K84928   7.544   1.902   8.896
  1238G11  C05J84929   7.660   1.914   8.811
  1238G11  C06684930   7.520   1.775   8.945
  1238G11  C06584931   7.404   1.742   9.017
  1238G11  C06484932   7.307   1.841   9.042
  1238G11  C06N84933   7.378   1.611   9.063
  1238G11  C06984934   7.468   1.509   9.036
  1238G11  C06P84935   7.440   1.377   9.073
  1238G11  C06R84936   7.523   1.269   9.036
  1238G11  C06B84937   7.639   1.299   8.963
  1238G11  C06S84938   7.725   1.195   8.922
  1238G11  C02G84939   7.846   1.220   8.866
  1238G11  C02F84940   7.924   1.117   8.817
  1238G11  C02784941   7.881   0.988   8.834
  1238G11  C02684942   7.956   0.884   8.778
  1238G11  C00E84943   7.911   0.753   8.779
  1238G11  C00D84944   7.980   0.658   8.713
  1238G11  C00C84945   7.917   0.535   8.702
  1238G11  C00B84946   7.799   0.498   8.755
  1238G11  C01584947   7.737   0.593   8.835
  1238G11  C07F84948   7.613   0.568   8.889
  1238G11  C07E84949   7.545   0.669   8.960
  1238G11  C06W84950   7.600   0.799   8.965
  1238G11  C06V84951   7.722   0.825   8.908
  1238G11  C06X84952   7.522   0.902   9.023
  1238G11  C07B84953   7.394   0.879   9.073
  1238G11  C07C84954   7.343   0.753   9.059
  1238G11  C0FU84955   7.213   0.727   9.115
  1238G11  C0F784956   7.160   0.598   9.108
  1238G11  C0F684957   7.047   0.570   9.176
  1238G11  C0F884958   6.990   0.444   9.176
  1238G11  C0F984959   6.873   0.416   9.242
  1238G11  C0FA84960   6.819   0.285   9.239
  1238G11  C0FZ84961   6.868   0.200   9.141
  1238G11  C0G084962   6.800   0.076   9.116
  1238G11  C0GD84963   6.688   0.034   9.191
  1238G11  C0FC84964   6.641   0.126   9.285
  1238G11  C0GH84965   6.531   0.093   9.363
  1238G11  C0EY84966   6.492   0.182   9.465
  1238G11  C0EX84967   6.390   0.144   9.553
  1238G11  C0EW84968   6.341   0.237   9.642
  1238G11  C0FR84969   6.248   0.209   9.742
  1238G11  H01D84970   6.228   0.291   9.809
  1238G11  C0FS84971   6.195   0.078   9.745
  1238G11  H01C84972   6.115   0.048   9.812
  1238G11  C0GJ84973   6.234  -0.009   9.645
  1238G11  H01N84974   6.179  -0.102   9.652
  1238G11  C0EV84975   6.365   0.370   9.615
  1238G11  C0FT84976   6.270   0.470   9.643
  1238G11  H01E84977   6.170   0.448   9.675
  1238G11  C0EU84978   6.476   0.409   9.541
  1238G11  C0ET84979   6.519   0.541   9.522
  1238G11  C0EI84980   6.620   0.584   9.443
  1238G11  C0F184981   6.688   0.485   9.377
  1238G11  C0F084982   6.645   0.354   9.380
  1238G11  C0EH84983   6.650   0.722   9.427
  1238G11  C0EG84984   6.555   0.826   9.461
  1238G11  C0EJ84985   6.770   0.748   9.364
  1238G11  C0F384986   6.852   0.641   9.313
  1238G11  C0EK84987   6.811   0.882   9.350
  1238G11  C0EL84988   6.722   0.988   9.388
  1238G11  C0EM84989   6.796   1.116   9.374
  1238G11  C0EN84990   6.927   1.123   9.334
  1238G11  C07I84991   6.974   1.255   9.329
  1238G11  C07484992   7.087   1.289   9.254
  1238G11  C07384993   7.107   1.421   9.224
  1238G11  C07284994   7.231   1.453   9.163
  1238G11  C07584995   7.160   1.185   9.209
  1238G11  C07684996   7.117   1.051   9.230
  1238G11  C07884997   7.192   0.955   9.176
  1238G11  C07G84998   7.281   1.217   9.147
  1238G11  C07084999   7.361   1.112   9.107
  1238G11  C07Z85000   6.878   1.342   9.366
  1238G11  C07785001   6.999   1.018   9.288
  1238G11  C0EO85002   6.938   0.897   9.298
  1238G11  C0F485003   7.016   0.800   9.242
  1238G11  C0EQ85004   6.434   0.640   9.571
  1238G11  C0FQ85005   6.327   0.020   9.545
  1238G11  C0GI85006   6.364  -0.060   9.443
  1238G11  H01L85007   6.322  -0.160   9.438
  1238G11  C0EZ85008   6.542   0.314   9.464
  1238G11  C0GG85009   6.473  -0.036   9.350
  1238G11  C0GF85010   6.516  -0.129   9.251
  1238G11  H01M85011   6.457  -0.219   9.245
  1238G11  C0GE85012   6.629  -0.087   9.171
  1238G11  H01K85013   6.685  -0.152   9.106
  1238G11  O00J85014   6.845  -0.009   9.017
  1238G11  C0GA85015   6.948   0.032   8.944
  1238G11  C0G985016   6.986  -0.052   8.844
  1238G11  H01H85017   6.923  -0.137   8.820
  1238G11  C0G885018   7.106  -0.033   8.774
  1238G11  C0G785019   7.158  -0.112   8.662
  1238G11  H01I85020   7.095  -0.182   8.608
  1238G11  O00I85021   7.285  -0.100   8.606
  1238G11  C0G685022   7.364   0.005   8.659
  1238G11  H01J85023   7.460   0.008   8.610
  1238G11  C02D85024   7.314   0.105   8.751
  1238G11  C02C85025   7.395   0.216   8.786
  1238G11  C01785026   7.526   0.241   8.733
  1238G11  C01685027   7.603   0.359   8.768
  1238G11  O00185028   7.589   0.157   8.641
  1238G11  C01885029   7.701   0.193   8.570
  1238G11  C00985030   7.785   0.300   8.613
  1238G11  C00885031   7.920   0.329   8.574
  1238G11  C00785032   8.005   0.278   8.471
  1238G11  C00685033   7.961   0.190   8.365
  1238G11  C00585034   8.036   0.156   8.244
  1238G11  C00485035   8.160   0.204   8.199
  1238G11  C00385036   8.238   0.316   8.236
  1238G11  C00285037   8.356   0.352   8.156
  1238G11  C00P85038   8.423   0.477   8.174
  1238G11  C00O85039   8.520   0.519   8.084
  1238G11  C00N85040   8.581   0.644   8.097
  1238G11  C01085041   8.680   0.687   8.005
  1238G11  C01185042   8.740   0.809   8.015
  1238G11  C01Q85043   8.829   0.858   7.922
  1238G11  C01U85044   8.866   0.783   7.811
  1238G11  C01285045   8.812   0.648   7.810
  1238G11  H00085046   8.847   0.583   7.731
  1238G11  C01V85047   8.964   0.835   7.718
  1238G11  H00785048   8.992   0.767   7.639
  1238G11  O00585049   9.010   0.962   7.724
  1238G11  C01W85050   8.984   1.030   7.837
  1238G11  C03185051   9.059   1.144   7.865
  1238G11  C03285052   9.022   1.228   7.972
  1238G11  H00A85053   9.093   1.307   7.994
  1238G11  C03385054   8.917   1.189   8.063
  1238G11  H00B85055   8.885   1.253   8.144
  1238G11  C01O85056   8.846   1.069   8.037
  1238G11  C01N85057   8.738   1.027   8.113
  1238G11  C01M85058   8.675   1.123   8.203
  1238G11  C01L85059   8.644   1.265   8.217
  1238G11  C01K85060   8.579   1.278   8.343
  1238G11  C01Y85061   8.493   1.381   8.374
  1238G11  C02I85062   8.479   1.487   8.285
  1238G11  C02N85063   8.399   1.597   8.326
  1238G11  C02M85064   8.385   1.706   8.239
  1238G11  C02L85065   8.459   1.714   8.115
  1238G11  C02K85066   8.534   1.603   8.074
  1238G11  C02U85067   8.595   1.607   7.947
  1238G11  C02V85068   8.604   1.726   7.879
  1238G11  C03H85069   8.702   1.742   7.771
  1238G11  H00C85070   8.777   1.667   7.749
  1238G11  C02W85071   8.647   1.487   7.893
  1238G11  C02X85072   8.648   1.381   7.979
  1238G11  C02Y85073   8.690   1.282   7.885
  1238G11  H00885074   8.685   1.174   7.890
  1238G11  C02Z85075   8.715   1.344   7.754
  1238G11  O00485076   8.757   1.295   7.648
  1238G11  O00385077   8.678   1.468   7.765
  1238G11  C02J85078   8.544   1.486   8.157
  1238G11  C01Z85079   8.403   1.357   8.480
  1238G11  C02085080   8.391   1.232   8.540
  1238G11  C01I85081   8.464   1.128   8.484
  1238G11  C01H85082   8.420   0.998   8.487
  1238G11  C00K85083   8.473   0.898   8.405
  1238G11  C01S85084   8.572   0.929   8.321
  1238G11  C01485085   8.603   0.851   8.215
  1238G11  C00J85086   8.409   0.773   8.389
  1238G11  C00I85087   8.304   0.746   8.470
  1238G11  C00H85088   8.251   0.842   8.558
  1238G11  C00G85089   8.135   0.820   8.633
  1238G11  C00S85090   8.244   0.623   8.457
  1238G11  C00T85091   8.143   0.602   8.546
  1238G11  C00U85092   8.089   0.474   8.546
  1238G11  C00R85093   8.281   0.525   8.362
  1238G11  C00L85094   8.449   0.682   8.292
  1238G11  C02885095   8.304   0.970   8.559
  1238G11  C02385096   8.234   1.073   8.627
  1238G11  C02485097   8.118   1.037   8.703
  1238G11  C02185098   8.286   1.198   8.621
  1238G11  C02285099   8.198   1.298   8.660
  1238G11  C02H85100   8.090   1.268   8.739
  1238G11  C03085101   8.001   1.372   8.781
  1238G11  C03485102   8.034   1.498   8.750
  1238G11  C02P85103   8.217   1.423   8.612
  1238G11  C02B85104   8.310   1.452   8.510
  1238G11  C01J85105   8.581   1.159   8.416
  1238G11  C01X85106   8.615   1.367   8.114
  1238G11  C01T85107   8.615   1.061   8.323
  1238G11  H00985108   9.147   1.164   7.807
  1238G11  C01P85109   8.890   0.983   7.936
  1238G11  C01R85110   8.690   0.895   8.113
  1238G11  C00Z85111   8.714   0.601   7.897
  1238G11  O00085112   8.652   0.475   7.886
  1238G11  C00M85113   8.543   0.724   8.202
  1238G11  C00Y85114   8.561   0.436   7.982
  1238G11  C01385115   8.502   0.315   7.964
  1238G11  H00185116   8.541   0.258   7.881
  1238G11  C00Q85117   8.382   0.561   8.275
  1238G11  C00185118   8.398   0.268   8.051
  1238G11  C00085119   8.329   0.148   8.024
  1238G11  H00685120   8.363   0.086   7.943
  1238G11  C00W85121   8.208   0.405   8.342
  1238G11  C01G85122   8.219   0.118   8.104
  1238G11  H00585123   8.184   0.020   8.074
  1238G11  C01C85124   7.958   0.063   8.170
  1238G11  H00285125   7.988   0.024   8.073
  1238G11  C01B85126   7.839   0.033   8.245
  1238G11  C01D85127   7.735  -0.057   8.223
  1238G11  H00385128   7.734  -0.126   8.140
  1238G11  C01E85129   7.632  -0.049   8.310
  1238G11  H00485130   7.558  -0.127   8.304
  1238G11  O00285131   7.626   0.020   8.424
  1238G11  C01A85132   7.837   0.117   8.364
  1238G11  C00V85133   8.104   0.379   8.442
  1238G11  C01985134   7.726   0.114   8.453
  1238G11  C02E85135   7.345   0.307   8.873
  1238G11  C0FX85136   7.221   0.279   8.934
  1238G11  C0FW85137   7.164   0.381   9.015
  1238G11  C0GB85138   7.147   0.167   8.904
  1238G11  C0G385139   7.415   0.425   8.900
  1238G11  C07H85140   7.347   0.524   8.975
  1238G11  C0GC85141   7.189   0.079   8.807
  1238G11  C0G285142   7.025   0.146   8.972
  1238G11  C0G185143   6.980   0.233   9.072
  1238G11  C0FB85144   6.704   0.252   9.306
  1238G11  C0F285145   6.806   0.516   9.311
  1238G11  C0FY85146   7.044   0.353   9.085
  1238G11  C0F585147   6.973   0.669   9.250
  1238G11  C0FV85148   7.225   0.502   9.034
  1238G11  C07985149   7.140   0.828   9.179
  1238G11  C07A85150   7.314   0.984   9.114
  1238G11  C06Y85151   7.566   1.035   9.011
  1238G11  C07D85152   7.412   0.650   8.996
  1238G11  C01F85153   7.547   0.451   8.856
  1238G11  C00A85154   7.734   0.380   8.713
  1238G11  C00X85155   7.981   0.441   8.624
  1238G11  C00F85156   8.085   0.691   8.630
  1238G11  C02985157   7.793   0.723   8.848
  1238G11  C02585158   8.073   0.911   8.712
  1238G11  C06U85159   7.768   0.957   8.901
  1238G11  C02A85160   8.044   1.141   8.757
  1238G11  C05Y85161   7.880   1.351   8.848
  1238G11  C05Z85162   7.792   1.454   8.878
  1238G11  C06085163   7.828   1.584   8.846
  1238G11  C06285164   7.739   1.691   8.864
  1238G11  C06T85165   7.686   1.060   8.948
  1238G11  C06A85166   7.667   1.431   8.936
  1238G11  C06Z85167   7.483   1.138   9.056
  1238G11  C06Q85168   7.319   1.351   9.130
  1238G11  C06885169   7.586   1.538   8.971
  1238G11  C06785170   7.617   1.667   8.923
  1238G11  C06385171   7.319   1.968   9.000
  1238G11  C06C85172   7.213   2.057   9.011
  1238G11  C06D85173   7.219   2.181   8.962
  1238G11  C06E85174   7.120   2.278   8.965
  1238G11  C07Q85175   7.012   2.257   9.045
  1238G11  C07P85176   7.000   2.132   9.098
  1238G11  C07T85177   6.886   2.101   9.173
  1238G11  C07U85178   6.872   1.979   9.227
  1238G11  C07V85179   6.762   1.947   9.295
  1238G11  C08485180   6.666   2.043   9.320
  1238G11  C08C85181   6.680   2.170   9.260
  1238G11  C08B85182   6.584   2.268   9.278
  1238G11  C08A85183   6.600   2.388   9.206
  1238G11  C08985184   6.708   2.423   9.135
  1238G11  C08885185   6.710   2.541   9.066
  1238G11  C08785186   6.819   2.562   8.977
  1238G11  C08685187   6.921   2.467   8.967
  1238G11  C08X85188   6.611   2.639   9.078
  1238G11  C08T85189   6.485   2.597   9.142
  1238G11  C08D85190   6.803   2.323   9.122
  1238G11  C08U85191   6.493   2.480   9.212
  1238G11  C08V85192   6.373   2.447   9.272
  1238G11  C0CY85193   6.352   2.319   9.331
  1238G11  C0CX85194   6.227   2.296   9.381
  1238G11  C0CW85195   6.207   2.171   9.428
  1238G11  C0CV85196   6.311   2.078   9.426
  1238G11  C0D485197   6.439   2.111   9.388
  1238G11  C0CU85198   6.282   1.948   9.466
  1238G11  C0CT85199   6.156   1.904   9.504
  1238G11  C0CS85200   6.056   2.002   9.511
  1238G11  C0D685201   6.387   1.859   9.465
  1238G11  C0EC85202   6.515   1.890   9.425
  1238G11  C07X85203   6.611   1.793   9.401
  1238G11  C0DL85204   6.356   1.729   9.488
  1238G11  C0DK85205   6.451   1.633   9.477
  1238G11  C0DN85206   6.388   1.514   9.485
  1238G11  C0D885207   6.228   1.675   9.515
  1238G11  C08W85208   6.277   2.543   9.246
  1238G11  C0CQ85209   6.151   2.526   9.313
  1238G11  C09385210   6.463   2.235   9.334
  1238G11  C09285211   6.541   2.016   9.378
  1238G11  C08585212   6.793   2.197   9.187
  1238G11  C07S85213   6.913   2.352   9.047
  1238G11  C06F85214   7.129   2.398   8.890
  1238G11  C07O85215   7.100   2.033   9.086
  1238G11  C07N85216   7.087   1.908   9.141
  1238G11  C05D85217   7.340   2.217   8.913
  1238G11  C05C85218   7.349   2.333   8.841
  1238G11  C05N85219   7.473   2.332   8.783
  1238G11  C05M85220   7.689   2.031   8.727
  1238G11  C05I85221   7.761   1.814   8.800
  1238G11  C06185222   7.942   1.603   8.778
  1238G11  C02Q85223   8.142   1.520   8.663
  1238G11  C02O85224   8.321   1.575   8.446
  1238G11  C03Q85225   8.101   1.840   8.559
  1238G11  C03O85226   8.033   2.019   8.418
  1238G11  C03L85227   8.158   2.138   8.106
  1238G11  C02S85228   8.304   1.825   8.261
  1238G11  C02T85229   8.437   1.820   8.021
  1238G11  C03K85230   8.233   2.138   7.978
  1238G11  C03I85231   8.517   1.829   7.910
  1238G11  C03G85232   8.685   1.847   7.678
  1238G11  H00D85233   8.740   1.858   7.585
  1238G11  C03J85234   8.391   2.134   7.738
  1238G11  C03W85235   8.342   2.311   7.523
  1238G11  C04I85236   8.177   2.421   7.643
  1238G11  C04K85237   7.969   2.600   7.681
  1238G11  C04N85238   7.874   2.693   7.719
  1238G11  C04X85239   7.712   2.794   7.884
  1238G11  C05085240   7.526   2.872   8.043
  1238G11  C05W85241   7.638   2.688   8.230
  1238G11  C05S85242   7.226   2.851   8.412
  1238G11  C05R85243   7.509   2.648   8.503
  1238G11  C05O85244   7.496   2.439   8.699
  1238G11  C05B85245   7.241   2.426   8.823
  1238G11  C05A85246   7.187   2.716   8.620
  1238G11  C07R85247   7.029   2.490   8.883
  1238G11  C08N85248   6.819   2.676   8.888
  1238G11  C08M85249   6.722   2.779   8.911
  1238G11  C08L85250   6.724   2.893   8.828
  1238G11  C09185251   7.120   2.810   8.528
  1238G11  C09K85252   6.847   3.006   8.420
  1238G11  H00M85253   6.830   2.951   8.329
  1238G11  C08K85254   6.834   2.909   8.736
  1238G11  C09J85255   6.764   3.126   8.467
  1238G11  C09I85256   6.629   3.170   8.422
  1238G11  C09L85257   6.582   3.206   8.291
  1238G11  H00N85258   6.646   3.194   8.204
  1238G11  C09Q85259   6.458   3.259   8.287
  1238G11  H00O85260   6.433   3.307   8.193
  1238G11  O00B85261   6.371   3.275   8.396
  1238G11  C09G85262   6.408   3.219   8.518
  1238G11  C09F85263   6.301   3.208   8.612
  1238G11  O00A85264   6.179   3.264   8.564
  1238G11  C09P85265   6.060   3.222   8.616
  1238G11  H00P85266   5.981   3.202   8.544
  1238G11  C09O85267   6.054   3.159   8.745
  1238G11  C09D85268   6.179   3.130   8.813
  1238G11  C09C85269   6.197   3.068   8.951
  1238G11  C09N85270   6.111   3.021   9.056
  1238G11  C09T85271   5.978   2.974   9.017
  1238G11  C09S85272   5.900   3.042   8.915
  1238G11  C0CP85273   5.766   3.015   8.954
  1238G11  C0CN85274   5.754   2.923   9.061
  1238G11  C0CO85275   5.626   2.877   9.098
  1238G11  H01485276   5.613   2.803   9.175
  1238G11  C0CZ85277   5.510   2.944   9.039
  1238G11  H01585278   5.410   2.921   9.073
  1238G11  C0D085279   5.525   3.045   8.932
  1238G11  C0G585280   5.423   3.109   8.856
  1238G11  H01F85281   5.318   3.089   8.869
  1238G11  C0G485282   5.450   3.195   8.758
  1238G11  H01G85283   5.372   3.248   8.706
  1238G11  O00H85284   5.570   3.227   8.706
  1238G11  C0D285285   5.674   3.166   8.780
  1238G11  C09V85286   5.808   3.194   8.739
  1238G11  H00Q85287   5.817   3.265   8.658
  1238G11  C0D185288   5.657   3.067   8.879
  1238G11  C09R85289   5.926   3.136   8.806
  1238G11  C09H85290   6.544   3.181   8.537
  1238G11  C09E85291   6.308   3.160   8.747
  1238G11  C09B85292   6.317   3.045   9.010
  1238G11  C08Z85293   6.611   2.981   8.844
  1238G11  C08O85294   6.617   2.761   9.010
  1238G11  C09A85295   6.327   2.986   9.137
  1238G11  C08S85296   6.353   2.639   9.167
  1238G11  C09985297   6.190   2.960   9.168
  1238G11  C09U85298   5.892   2.899   9.104
  1238G11  C0BO85299   5.720   2.658   9.460
  1238G11  C0CL85300   6.049   2.625   9.309
  1238G11  C0D385301   6.137   2.401   9.374
  1238G11  C0D585302   6.081   2.133   9.467
  1238G11  C0BR85303   5.789   2.426   9.483
  1238G11  C0BQ85304   5.698   2.529   9.501
  1238G11  C0BL85305   5.505   2.732   9.555
  1238G11  C0AF85306   5.251   2.662   9.642
  1238G11  C0BH85307   5.405   2.325   9.599
  1238G11  C0BG85308   5.374   2.191   9.620
  1238G11  C0BD85309   5.142   2.250   9.656
  1238G11  C0AG85310   5.130   2.618   9.663
  1238G11  C0AI85311   4.906   2.686   9.730
  1238G11  C0AV85312   4.692   2.637   9.871
  1238G11  C0BB85313   4.783   2.301   9.727
  1238G11  O00C85314   4.562   2.453   9.971
  1238G11  C0BC85315   4.740   2.178   9.774
  1238G11  C0B985316   5.010   2.219   9.694
  1238G11  O00E85317   5.062   1.871   9.811
  1238G11  C0CA85318   5.151   1.776   9.821
  1238G11  O00F85319   5.122   1.671   9.881
  1238G11  C0BF85320   5.246   2.157   9.657
  1238G11  C0C585321   5.280   1.806   9.761
  1238G11  C0C485322   5.377   1.704   9.769
  1238G11  H01185323   5.365   1.607   9.816
  1238G11  C0C885324   5.471   2.093   9.615
  1238G11  C0C285325   5.506   1.736   9.717
  1238G11  C0C385326   5.620   1.655   9.724
  1238G11  C0DY85327   5.633   1.537   9.803
  1238G11  H01685328   5.562   1.492   9.871
  1238G11  C0DX85329   5.770   1.498   9.791
  1238G11  C0DW85330   5.821   1.391   9.872
  1238G11  C0BY85331   5.694   2.030   9.574
  1238G11  C0DB85332   5.747   1.682   9.672
  1238G11  C0CC85333   5.929   1.966   9.546
  1238G11  C0D785334   6.126   1.767   9.536
  1238G11  C0DZ85335   5.840   1.587   9.696
  1238G11  C0DM85336   6.249   1.535   9.510
  1238G11  C0DQ85337   6.025   1.350   9.713
  1238G11  C0DV85338   5.943   1.325   9.827
  1238G11  C0E085339   5.771   1.309   9.991
  1238G11  C0FO85340   5.749   0.963   9.939
  1238G11  C0E385341   5.633   1.272  10.018
  1238G11  H01785342   5.545   1.323   9.981
  1238G11  C0GV85343   5.615   0.925   9.940
  1238G11  C0ES85344   5.836   0.912   9.839
  1238G11  C0GQ85345   5.600   0.659   9.699
  1238G11  C0FJ85346   5.902   0.554   9.508
  1238G11  C0ED85347   6.013   0.781   9.648
  1238G11  C0ER85348   6.306   0.602   9.606
  1238G11  C0EP85349   6.436   0.771   9.524
  1238G11  C0E685350   6.144   0.999   9.651
  1238G11  C0DE85351   6.315   1.219   9.505
  1238G11  C0EA85352   6.587   0.960   9.431
  1238G11  C0DF85353   6.405   1.284   9.423
  1238G11  C08085354   6.763   1.259   9.387
  1238G11  C0DO85355   6.461   1.412   9.443
  1238G11  C0DJ85356   6.585   1.665   9.433
  1238G11  C07K85357   6.897   1.485   9.326
  1238G11  C07W85358   6.734   1.815   9.339
  1238G11  C08385359   6.967   1.878   9.207
  1238G11  C07J85360   7.015   1.518   9.260
  1238G11  C06O85361   7.257   1.583   9.128
  1238G11  C06M85362   7.187   1.809   9.113
  1248G11  C07185363  10.234   2.514  11.784
  1248G11  C07L85364  10.207   2.388  11.724
  1248G11  C07M85365  10.257   2.363  11.596
  1248G11  C07Y85366  10.251   2.230  11.541
  1248G11  C08185367  10.182   2.129  11.606
  1248G11  C08285368  10.168   2.001  11.544
  1248G11  C0DI85369  10.095   1.883  11.587
  1248G11  C0DH85370  10.011   1.852  11.692
  1248G11  C0DG85371   9.933   1.728  11.671
  1248G11  C0E985372   9.894   1.616  11.758
  1248G11  C0E885373   9.922   1.492  11.680
  1248G11  C0E785374   9.907   1.349  11.717
  1248G11  C0EB85375   9.835   1.314  11.840
  1248G11  C0EF85376   9.808   1.180  11.886
  1248G11  C0EE85377   9.902   1.075  11.890
  1248G11  C0FD85378   9.941   1.016  12.019
  1248G11  C0FE85379   9.892   1.047  12.152
  1248G11  H01B85380   9.830   1.129  12.183
  1248G11  C0FF85381   9.929   0.966  12.261
  1248G11  H01A85382   9.889   0.986  12.359
  1248G11  C0FG85383  10.025   0.865  12.241
  1248G11  H01885384  10.062   0.813  12.328
  1248G11  C0FH85385  10.086   0.850  12.122
  1248G11  C0FI85386  10.186   0.754  12.104
  1248G11  H01985387  10.227   0.701  12.189
  1248G11  O00K85388  10.250   0.736  11.983
  1248G11  C0FL85389  10.185   0.775  11.872
  1248G11  C0FK85390  10.076   0.863  11.881
  1248G11  C0FM85391  10.026   0.915  11.764
  1248G11  C0FN85392  10.049   0.850  11.638
  1248G11  C0FP85393  10.161   0.763  11.631
  1248G11  C0GO85394  10.213   0.720  11.511
  1248G11  C0GN85395  10.342   0.678  11.497
  1248G11  C0GR85396  10.413   0.658  11.622
  1248G11  C0GS85397  10.549   0.607  11.616
  1248G11  H01Q85398  10.605   0.593  11.708
  1248G11  C0GT85399  10.609   0.593  11.492
  1248G11  H01O85400  10.705   0.545  11.482
  1248G11  C0GU85401  10.536   0.620  11.373
  1248G11  H01P85402  10.585   0.610  11.277
  1248G11  O00L85403  10.351   0.663  11.744
  1248G11  C0GM85404  10.402   0.666  11.372
  1248G11  C0GL85405  10.327   0.694  11.259
  1248G11  H01R85406  10.371   0.688  11.161
  1248G11  C0GK85407  10.190   0.729  11.273
  1248G11  C0GP85408  10.092   0.791  11.184
  1248G11  C0E285409   9.976   0.836  11.269
  1248G11  C0E185410   9.935   0.963  11.220
  1248G11  C0DU85411   9.951   1.087  11.285
  1248G11  C0DT85412   9.937   1.116  11.417
  1248G11  C0E485413   9.937   1.028  11.521
  1248G11  C0E585414   9.923   1.097  11.639
  1248G11  C0DS85415   9.948   1.244  11.474
  1248G11  C0DR85416   9.986   1.344  11.382
  1248G11  C0DD85417  10.012   1.476  11.417
  1248G11  C0DC85418  10.075   1.534  11.295
  1248G11  C0DP85419  10.082   1.440  11.186
  1248G11  C0DA85420  10.133   1.453  11.045
  1248G11  C0D985421  10.205   1.569  10.980
  1248G11  C0CR85422  10.242   1.559  10.841
  1248G11  C0C085423  10.215   1.447  10.763
  1248G11  C0BZ85424  10.255   1.429  10.633
  1248G11  C0C185425  10.237   1.304  10.570
  1248G11  C0C785426  10.296   1.279  10.446
  1248G11  C0C685427  10.288   1.152  10.384
  1248G11  C0C985428  10.359   1.120  10.273
  1248G11  C0B885429  10.354   0.991  10.220
  1248G11  C0B785430  10.405   0.960  10.091
  1248G11  C0B685431  10.416   0.839  10.013
  1248G11  C0B585432  10.438   0.713  10.078
  1248G11  H00Z85433  10.411   0.688  10.179
  1248G11  C0B485434  10.521   0.634   9.987
  1248G11  H01085435  10.577   0.545  10.011
  1248G11  C0B385436  10.551   0.718   9.867
  1248G11  C0AP85437  10.671   0.755   9.791
  1248G11  C0AQ85438  10.650   0.895   9.774
  1248G11  C0AR85439  10.761   0.976   9.740
  1248G11  C0AS85440  10.742   1.098   9.785
  1248G11  C0AT85441  10.647   1.142   9.868
  1248G11  C0BA85442  10.549   1.059   9.912
  1248G11  C0AU85443  10.659   1.261   9.930
  1248G11  C0BE85444  10.575   1.292  10.036
  1248G11  C0BI85445  10.588   1.417  10.091
  1248G11  C0BJ85446  10.688   1.508  10.049
  1248G11  C0BK85447  10.690   1.637  10.098
  1248G11  C0BW85448  10.604   1.672  10.201
  1248G11  C0BV85449  10.518   1.579  10.256
  1248G11  C0BU85450  10.449   1.609  10.372
  1248G11  C0BX85451  10.376   1.505  10.438
  1248G11  C0BT85452  10.463   1.735  10.436
  1248G11  C0CD85453  10.419   1.749  10.566
  1248G11  C0CB85454  10.345   1.649  10.632
  1248G11  C0CE85455  10.437   1.869  10.625
  1248G11  C0CK85456  10.512   1.973  10.561
  1248G11  C0BS85457  10.563   1.953  10.433
  1248G11  C0CJ85458  10.637   2.052  10.369
  1248G11  C0BP85459  10.710   2.024  10.250
  1248G11  C0CI85460  10.791   2.122  10.186
  1248G11  C0CH85461  10.860   2.080  10.069
  1248G11  H01285462  10.910   2.157  10.013
  1248G11  C0BN85463  10.872   1.946  10.033
  1248G11  C0CG85464  10.980   1.896   9.955
  1248G11  C0CF85465  11.092   1.977   9.914
  1248G11  H01385466  11.104   2.072   9.965
  1248G11  O00G85467  11.198   1.932   9.837
  1248G11  C0AA85468  11.192   1.799   9.806
  1248G11  C0A985469  11.304   1.759   9.741
  1248G11  H00U85470  11.381   1.834   9.726
  1248G11  C0A885471  11.326   1.627   9.708
  1248G11  H00V85472  11.421   1.606   9.661
  1248G11  C0A785473  11.217   1.537   9.717
  1248G11  C0A685474  11.098   1.578   9.792
  1248G11  C0A585475  10.995   1.499   9.827
  1248G11  C0A485476  10.976   1.366   9.771
  1248G11  C0A385477  11.042   1.269   9.693
  1248G11  C0A285478  11.169   1.286   9.639
  1248G11  C0A185479  11.234   1.179   9.560
  1248G11  C0A085480  11.201   1.040   9.517
  1248G11  C09Z85481  11.292   0.983   9.426
  1248G11  C09Y85482  11.266   0.853   9.374
  1248G11  H00Y85483  11.334   0.810   9.301
  1248G11  C09X85484  11.159   0.780   9.429
  1248G11  C09W85485  11.142   0.653   9.382
  1248G11  H00R85486  11.209   0.629   9.301
  1248G11  C0AX85487  11.055   0.556   9.424
  1248G11  H00S85488  11.058   0.460   9.375
  1248G11  C0AW85489  10.976   0.596   9.526
  1248G11  H00T85490  10.899   0.535   9.571
  1248G11  C0AN85491  10.975   0.737   9.575
  1248G11  C0AO85492  10.881   0.782   9.672
  1248G11  C0AM85493  11.072   0.828   9.523
  1248G11  C0B285494  11.411   1.048   9.376
  1248G11  O00D85495  11.484   1.004   9.282
  1248G11  C0B185496  11.444   1.175   9.423
  1248G11  H00W85497  11.537   1.224   9.402
  1248G11  C0AL85498  11.089   0.964   9.567
  1248G11  C0AK85499  10.980   1.011   9.647
  1248G11  C0B085500  11.357   1.239   9.516
  1248G11  C0AZ85501  11.368   1.376   9.569
  1248G11  H00X85502  11.448   1.440   9.532
  1248G11  C0AJ85503  10.969   1.145   9.690
  1248G11  C0AH85504  10.858   1.301   9.812
  1248G11  C0AE85505  10.893   1.543   9.913
  1248G11  C0AD85506  10.885   1.677   9.956
  1248G11  C0AY85507  11.246   1.405   9.651
  1248G11  C0AB85508  11.092   1.711   9.838
  1248G11  C0AC85509  10.985   1.763   9.917
  1248G11  C0BM85510  10.785   1.855  10.089
  1248G11  C0CM85511  10.795   2.252  10.241
  1248G11  C09M85512  10.702   2.290  10.345
  1248G11  C09885513  10.687   2.436  10.354
  1248G11  C08R85514  10.639   2.516  10.463
  1248G11  C08Q85515  10.617   2.656  10.436
  1248G11  C08P85516  10.621   2.779  10.520
  1248G11  C08Y85517  10.658   2.893  10.445
  1248G11  C09785518  10.707   2.881  10.317
  1248G11  C09685519  10.808   2.972  10.302
  1248G11  C09085520  10.779   3.075  10.404
  1248G11  C09585521  10.858   3.194  10.429
  1248G11  C09485522  10.815   3.303  10.509
  1248G11  C08J85523  10.737   3.294  10.632
  1248G11  C08I85524  10.781   3.383  10.724
  1248G11  C08H85525  10.746   3.336  10.854
  1248G11  C08G85526  10.711   3.190  10.841
  1248G11  C08F85527  10.656   3.081  10.923
  1248G11  C08E85528  10.641   3.097  11.062
  1248G11  C05985529  10.678   3.217  11.140
  1248G11  C05885530  10.659   3.221  11.282
  1248G11  C05785531  10.677   3.330  11.372
  1248G11  C05685532  10.722   3.442  11.308
  1248G11  C05585533  10.772   3.444  11.180
  1248G11  C05485534  10.775   3.576  11.135
  1248G11  C05385535  10.716   3.659  11.238
  1248G11  C05285536  10.669   3.799  11.235
  1248G11  C05185537  10.684   3.877  11.117
  1248G11  C05U85538  10.725   3.833  10.983
  1248G11  C05T85539  10.742   3.699  10.924
  1248G11  C06K85540  10.793   3.729  10.799
  1248G11  H00J85541  10.823   3.644  10.739
  1248G11  C06L85542  10.814   3.871  10.772
  1248G11  H00I85543  10.857   3.929  10.692
  1248G11  C05V85544  10.767   3.933  10.894
  1248G11  C06J85545  10.775   4.073  10.923
  1248G11  H00K85546  10.830   4.147  10.866
  1248G11  C05X85547  10.702   4.119  11.033
  1248G11  C06I85548  10.669   4.258  11.054
  1248G11  H00L85549  10.696   4.336  10.984
  1248G11  C04Z85550  10.582   4.304  11.152
  1248G11  C06H85551  10.538   4.443  11.160
  1248G11  H00H85552  10.579   4.519  11.095
  1248G11  C04Y85553  10.440   4.477  11.264
  1248G11  C06G85554  10.391   4.612  11.269
  1248G11  O00985555  10.427   4.703  11.188
  1248G11  O00885556  10.292   4.635  11.358
  1248G11  C04P85557  10.263   4.550  11.462
  1248G11  C04J85558  10.176   4.580  11.574
  1248G11  C04Q85559  10.114   4.701  11.607
  1248G11  H00E85560  10.134   4.779  11.535
  1248G11  C04M85561  10.035   4.724  11.724
  1248G11  C04R85562   9.965   4.847  11.759
  1248G11  H00F85563   9.964   4.923  11.683
  1248G11  C04S85564   9.913   4.870  11.881
  1248G11  H00G85565   9.871   4.968  11.898
  1248G11  O00785566   9.921   4.775  11.980
  1248G11  C03V85567   9.974   4.653  11.943
  1248G11  C03U85568   9.980   4.553  12.047
  1248G11  O00685569   9.932   4.596  12.172
  1248G11  C03F85570   9.914   4.498  12.260
  1248G11  C03E85571   9.943   4.360  12.240
  1248G11  C03D85572  10.015   4.332  12.121
  1248G11  C03C85573  10.059   4.201  12.097
  1248G11  C03B85574  10.019   4.109  12.197
  1248G11  C03A85575  10.070   3.978  12.182
  1248G11  C03985576  10.156   3.942  12.072
  1248G11  C03885577  10.179   3.804  12.093
  1248G11  C03785578  10.118   3.778  12.216
  1248G11  C03685579  10.120   3.653  12.273
  1248G11  C02R85580  10.056   3.604  12.388
  1248G11  C03585581  10.083   3.465  12.381
  1248G11  C03R85582  10.161   3.432  12.276
  1248G11  C03S85583  10.170   3.307  12.215
  1248G11  C04985584  10.218   3.299  12.094
  1248G11  C04885585  10.253   3.420  12.029
  1248G11  C03P85586  10.226   3.558  12.072
  1248G11  C04785587  10.337   3.397  11.916
  1248G11  C04685588  10.402   3.492  11.849
  1248G11  C04585589  10.402   3.629  11.849
  1248G11  C03T85590  10.326   3.718  11.920
  1248G11  C04485591  10.337   3.848  11.864
  1248G11  C04385592  10.448   3.842  11.780
  1248G11  C04285593  10.434   3.946  11.685
  1248G11  C04185594  10.322   4.025  11.740
  1248G11  C04085595  10.257   4.134  11.676
  1248G11  C03Z85596  10.199   4.243  11.747
  1248G11  C04H85597  10.200   4.356  11.657
  1248G11  C04G85598  10.272   4.321  11.544
  1248G11  C03N85599  10.146   4.264  11.881
  1248G11  C03Y85600  10.093   4.398  11.900
  1248G11  C03X85601  10.095   4.505  11.800
  1248G11  C04F85602  10.316   4.193  11.554
  1248G11  C04E85603  10.413   4.152  11.457
  1248G11  C04O85604  10.445   4.245  11.352
  1248G11  C04D85605  10.475   4.026  11.448
  1248G11  C04V85606  10.541   3.992  11.335
  1248G11  C04W85607  10.582   4.077  11.228
  1248G11  C04C85608  10.484   3.925  11.545
  1248G11  C04L85609  10.563   3.819  11.477
  1248G11  C04U85610  10.602   3.696  11.539
  1248G11  C05Q85611  10.655   3.585  11.475
  1248G11  C05P85612  10.628   3.470  11.550
  1248G11  C04T85613  10.554   3.504  11.656
  1248G11  C04B85614  10.554   3.640  11.662
  1248G11  C03M85615  10.278   3.976  11.870
  1248G11  C04A85616  10.480   3.703  11.760
  1248G11  C05H85617  10.485   3.428  11.754
  1248G11  C05G85618  10.470   3.287  11.767
  1248G11  C05F85619  10.518   3.188  11.681
  1248G11  C05E85620  10.449   3.065  11.663
  1248G11  C05L85621  10.369   2.973  11.743
  1248G11  C05K85622  10.318   3.009  11.873
  1248G11  C05J85623  10.310   3.145  11.923
  1248G11  C06685624  10.260   2.901  11.945
  1248G11  C06585625  10.250   2.773  11.891
  1248G11  C06485626  10.296   2.747  11.764
  1248G11  C06N85627  10.196   2.670  11.967
  1248G11  C06985628  10.142   2.696  12.097
  1248G11  C06P85629  10.072   2.596  12.160
  1248G11  C06R85630   9.999   2.620  12.279
  1248G11  C06B85631  10.000   2.747  12.336
  1248G11  C06S85632   9.924   2.779  12.448
  1248G11  C02G85633   9.921   2.911  12.500
  1248G11  C02F85634   9.829   2.942  12.604
  1248G11  C02785635   9.739   2.846  12.650
  1248G11  C02685636   9.636   2.892  12.732
  1248G11  C00E85637   9.531   2.807  12.759
  1248G11  C00D85638   9.423   2.849  12.833
  1248G11  C00C85639   9.318   2.762  12.846
  1248G11  C00B85640   9.311   2.632  12.802
  1248G11  C01585641   9.427   2.589  12.738
  1248G11  C07F85642   9.423   2.459  12.687
  1248G11  C07E85643   9.528   2.413  12.610
  1248G11  C06W85644   9.634   2.499  12.585
  1248G11  C06V85645   9.640   2.625  12.640
  1248G11  C06X85646   9.736   2.464  12.493
  1248G11  C07B85647   9.730   2.336  12.435
  1248G11  C07C85648   9.633   2.249  12.480
  1248G11  C0FU85649   9.627   2.121  12.424
  1248G11  C0F785650   9.525   2.032  12.456
  1248G11  C0F685651   9.519   1.902  12.403
  1248G11  C0F885652   9.423   1.813  12.447
  1248G11  C0F985653   9.421   1.681  12.391
  1248G11  C0FA85654   9.322   1.592  12.434
  1248G11  C0FZ85655   9.232   1.632  12.528
  1248G11  C0G085656   9.136   1.540  12.579
  1248G11  C0GD85657   9.146   1.405  12.548
  1248G11  C0FC85658   9.233   1.367  12.442
  1248G11  C0GH85659   9.236   1.235  12.397
  1248G11  C0EY85660   9.322   1.197  12.293
  1248G11  C0EX85661   9.315   1.071  12.234
  1248G11  C0EW85662   9.400   1.032  12.133
  1248G11  C0FR85663   9.390   0.904  12.065
  1248G11  H01D85664   9.445   0.865  11.981
  1248G11  C0FS85665   9.285   0.816  12.101
  1248G11  H01C85666   9.268   0.723  12.049
  1248G11  C0GJ85667   9.200   0.853  12.207
  1248G11  H01N85668   9.116   0.789  12.229
  1248G11  C0EV85669   9.502   1.121  12.099
  1248G11  C0FT85670   9.617   1.078  12.020
  1248G11  H01E85671   9.639   0.975  11.999
  1248G11  C0EU85672   9.500   1.252  12.140
  1248G11  C0ET85673   9.583   1.354  12.091
  1248G11  C0EI85674   9.592   1.484  12.131
  1248G11  C0F185675   9.507   1.517  12.237
  1248G11  C0F085676   9.411   1.424  12.287
  1248G11  C0EH85677   9.680   1.577  12.069
  1248G11  C0EG85678   9.764   1.538  11.959
  1248G11  C0EJ85679   9.686   1.703  12.129
  1248G11  C0F385680   9.609   1.737  12.245
  1248G11  C0EK85681   9.765   1.804  12.070
  1248G11  C0EL85682   9.832   1.779  11.946
  1248G11  C0EM85683   9.890   1.904  11.898
  1248G11  C0EN85684   9.897   2.020  11.971
  1248G11  C07I85685   9.983   2.119  11.915
  1248G11  C07485686  10.020   2.231  11.987
  1248G11  C07385687  10.105   2.317  11.923
  1248G11  C07285688  10.127   2.441  11.984
  1248G11  C07585689   9.967   2.246  12.113
  1248G11  C07685690   9.876   2.151  12.161
  1248G11  C07885691   9.803   2.174  12.276
  1248G11  C07G85692   9.990   2.366  12.175
  1248G11  C07085693   9.909   2.395  12.286
  1248G11  C07Z85694  10.029   2.076  11.792
  1248G11  C07785695   9.853   2.032  12.102
  1248G11  C0EO85696   9.784   1.924  12.146
  1248G11  C0F485697   9.704   1.955  12.255
  1248G11  C0EQ85698   9.672   1.318  11.991
  1248G11  C0FQ85699   9.213   0.981  12.280
  1248G11  C0GI85700   9.141   1.017  12.394
  1248G11  H01L85701   9.069   0.949  12.436
  1248G11  C0EZ85702   9.414   1.286  12.241
  1248G11  C0GG85703   9.154   1.141  12.457
  1248G11  C0GF85704   9.078   1.180  12.570
  1248G11  H01M85705   9.013   1.106  12.614
  1248G11  C0GE85706   9.069   1.307  12.613
  1248G11  H01K85707   9.002   1.334  12.693
  1248G11  O00J85708   9.037   1.578  12.666
  1248G11  C0GA85709   9.020   1.711  12.685
  1248G11  C0G985710   8.901   1.761  12.733
  1248G11  H01H85711   8.821   1.696  12.766
  1248G11  C0G885712   8.876   1.896  12.740
  1248G11  C0G785713   8.753   1.957  12.778
  1248G11  H01I85714   8.666   1.895  12.794
  1248G11  O00I85715   8.727   2.090  12.775
  1248G11  C0G685716   8.842   2.169  12.763
  1248G11  H01J85717   8.820   2.275  12.761
  1248G11  C02D85718   8.972   2.124  12.738
  1248G11  C02C85719   9.085   2.210  12.734
  1248G11  C01785720   9.085   2.340  12.780
  1248G11  C01685721   9.196   2.423  12.771
  1248G11  O00185722   8.978   2.387  12.849
  1248G11  C01885723   8.962   2.519  12.876
  1248G11  C00985724   9.072   2.609  12.867
  1248G11  C00885725   9.080   2.747  12.897
  1248G11  C00785726   8.983   2.850  12.933
  1248G11  C00685727   8.844   2.827  12.946
  1248G11  C00585728   8.747   2.927  12.983
  1248G11  C00485729   8.763   3.073  13.000
  1248G11  C00385730   8.882   3.163  12.992
  1248G11  C00285731   8.869   3.304  13.013
  1248G11  C00P85732   8.975   3.397  13.001
  1248G11  C00O85733   8.957   3.536  13.009
  1248G11  C00N85734   9.061   3.623  12.989
  1248G11  C01085735   9.045   3.761  12.995
  1248G11  C01185736   9.152   3.849  12.967
  1248G11  C01Q85737   9.129   3.988  12.962
  1248G11  C01U85738   8.997   4.042  12.983
  1248G11  C01285739   8.892   3.946  13.019
  1248G11  H00085740   8.795   3.983  13.047
  1248G11  C01V85741   8.990   4.185  12.987
  1248G11  H00785742   8.892   4.230  12.997
  1248G11  O00585743   9.087   4.274  12.955
  1248G11  C01W85744   9.214   4.222  12.946
  1248G11  C03185745   9.327   4.303  12.947
  1248G11  C03285746   9.455   4.252  12.943
  1248G11  H00A85747   9.547   4.309  12.934
  1248G11  C03385748   9.469   4.115  12.923
  1248G11  H00B85749   9.572   4.083  12.916
  1248G11  C01O85750   9.363   4.025  12.929
  1248G11  C01N85751   9.382   3.890  12.916
  1248G11  C01M85752   9.507   3.840  12.869
  1248G11  C01L85753   9.614   3.870  12.772
  1248G11  C01K85754   9.696   3.756  12.768
  1248G11  C01Y85755   9.790   3.721  12.667
  1248G11  C02I85756   9.826   3.822  12.578
  1248G11  C02N85757   9.919   3.791  12.480
  1248G11  C02M85758   9.957   3.896  12.391
  1248G11  C02L85759   9.905   4.026  12.399
  1248G11  C02K85760   9.807   4.052  12.498
  1248G11  C02U85761   9.754   4.182  12.497
  1248G11  C02V85762   9.810   4.287  12.426
  1248G11  C03H85763   9.787   4.419  12.461
  1248G11  H00C85764   9.731   4.442  12.551
  1248G11  C02W85765   9.625   4.197  12.549
  1248G11  C02X85766   9.581   4.087  12.620
  1248G11  C02Y85767   9.443   4.125  12.626
  1248G11  H00885768   9.364   4.060  12.659
  1248G11  C02Z85769   9.426   4.263  12.572
  1248G11  O00485770   9.327   4.334  12.577
  1248G11  O00385771   9.541   4.298  12.523
  1248G11  C02J85772   9.760   3.946  12.584
  1248G11  C01Z85773   9.828   3.588  12.659
  1248G11  C02085774   9.761   3.484  12.730
  1248G11  C01I85775   9.662   3.519  12.818
  1248G11  C01H85776   9.567   3.428  12.860
  1248G11  C00K85777   9.443   3.477  12.896
  1248G11  C01S85778   9.419   3.612  12.908
  1248G11  C01485779   9.293   3.661  12.942
  1248G11  C00J85780   9.340   3.392  12.923
  1248G11  C00I85781   9.365   3.256  12.911
  1248G11  C00H85782   9.487   3.210  12.864
  1248G11  C00G85783   9.507   3.077  12.835
  1248G11  C00S85784   9.259   3.168  12.933
  1248G11  C00T85785   9.289   3.037  12.915
  1248G11  C00U85786   9.180   2.950  12.907
  1248G11  C00R85787   9.127   3.206  12.959
  1248G11  C00L85788   9.213   3.439  12.958
  1248G11  C02885789   9.592   3.295  12.835
  1248G11  C02385790   9.697   3.256  12.762
  1248G11  C02485791   9.712   3.122  12.727
  1248G11  C02185792   9.780   3.351  12.703
  1248G11  C02285793   9.872   3.313  12.614
  1248G11  C02H85794   9.892   3.176  12.578
  1248G11  C03085795   9.978   3.137  12.473
  1248G11  C03485796  10.048   3.236  12.408
  1248G11  C02P85797   9.944   3.412  12.549
  1248G11  C02B85798   9.909   3.549  12.560
  1248G11  C01J85799   9.646   3.656  12.846
  1248G11  C01X85800   9.645   3.971  12.671
  1248G11  C01T85801   9.526   3.702  12.891
  1248G11  H00985802   9.313   4.410  12.950
  1248G11  C01P85803   9.233   4.078  12.946
  1248G11  C01R85804   9.280   3.798  12.940
  1248G11  C00Z85805   8.914   3.810  13.014
  1248G11  O00085806   8.813   3.719  13.043
  1248G11  C00M85807   9.191   3.576  12.966
  1248G11  C00Y85808   8.834   3.585  13.044
  1248G11  C01385809   8.736   3.497  13.074
  1248G11  H00185810   8.643   3.544  13.102
  1248G11  C00Q85811   9.108   3.346  12.977
  1248G11  C00185812   8.740   3.358  13.051
  1248G11  C00085813   8.632   3.274  13.063
  1248G11  H00685814   8.537   3.318  13.088
  1248G11  C00W85815   9.018   3.118  12.965
  1248G11  C01G85816   8.636   3.136  13.023
  1248G11  H00585817   8.537   3.094  13.027
  1248G11  C01C85818   8.623   2.856  13.002
  1248G11  H00285819   8.531   2.900  13.038
  1248G11  C01B85820   8.646   2.720  12.972
  1248G11  C01D85821   8.561   2.607  12.985
  1248G11  H00385822   8.456   2.618  13.011
  1248G11  C01E85823   8.614   2.486  12.954
  1248G11  H00485824   8.553   2.398  12.966
  1248G11  O00285825   8.740   2.461  12.914
  1248G11  C01A85826   8.780   2.699  12.938
  1248G11  C00V85827   9.048   2.979  12.935
  1248G11  C01985828   8.829   2.562  12.915
  1248G11  C02E85829   9.201   2.160  12.679
  1248G11  C0FX85830   9.205   2.031  12.639
  1248G11  C0FW85831   9.316   1.987  12.565
  1248G11  C0GB85832   9.102   1.938  12.673
  1248G11  C0G385833   9.317   2.244  12.665
  1248G11  C07H85834   9.422   2.202  12.591
  1248G11  C0GC85835   8.984   1.985  12.722
  1248G11  C0G285836   9.122   1.803  12.649
  1248G11  C0G185837   9.231   1.764  12.573
  1248G11  C0FB85838   9.320   1.465  12.386
  1248G11  C0F285839   9.513   1.643  12.300
  1248G11  C0FY85840   9.327   1.851  12.533
  1248G11  C0F585841   9.613   1.866  12.301
  1248G11  C0FV85842   9.414   2.079  12.532
  1248G11  C07985843   9.713   2.082  12.323
  1248G11  C07A85844   9.816   2.302  12.333
  1248G11  C06Y85845   9.828   2.556  12.445
  1248G11  C07D85846   9.533   2.286  12.564
  1248G11  C01F85847   9.315   2.374  12.716
  1248G11  C00A85848   9.195   2.556  12.816
  1248G11  C00X85849   9.200   2.812  12.888
  1248G11  C00F85850   9.412   2.986  12.869
  1248G11  C02985851   9.530   2.671  12.712
  1248G11  C02585852   9.621   3.026  12.766
  1248G11  C06U85853   9.743   2.717  12.603
  1248G11  C02A85854   9.814   3.078  12.638
  1248G11  C05Y85855   9.986   3.007  12.431
  1248G11  C05Z85856  10.071   2.974  12.317
  1248G11  C06085857  10.139   3.075  12.246
  1248G11  C06285858  10.191   3.061  12.119
  1248G11  C06T85859   9.834   2.685  12.499
  1248G11  C06A85860  10.078   2.849  12.272
  1248G11  C06Z85861   9.911   2.525  12.335
  1248G11  C06Q85862  10.071   2.464  12.112
  1248G11  C06885863  10.146   2.823  12.148
  1248G11  C06785864  10.197   2.928  12.068
  1248G11  C06385865  10.347   2.850  11.684
  1248G11  C06C85866  10.393   2.817  11.556
  1248G11  C06D85867  10.451   2.911  11.469
  1248G11  C06E85868  10.496   2.895  11.342
  1248G11  C07Q85869  10.470   2.774  11.286
  1248G11  C07P85870  10.410   2.672  11.363
  1248G11  C07T85871  10.393   2.546  11.309
  1248G11  C07U85872  10.347   2.439  11.387
  1248G11  C07V85873  10.347   2.313  11.336
  1248G11  C08485874  10.388   2.294  11.209
  1248G11  C08C85875  10.430   2.400  11.130
  1248G11  C08B85876  10.472   2.379  10.998
  1248G11  C08A85877  10.523   2.484  10.926
  1248G11  C08985878  10.531   2.612  10.969
  1248G11  C08885879  10.577   2.715  10.886
  1248G11  C08785880  10.587   2.843  10.937
  1248G11  C08685881  10.554   2.863  11.072
  1248G11  C08X85882  10.604   2.692  10.749
  1248G11  C08T85883  10.611   2.549  10.706
  1248G11  C08D85884  10.493   2.633  11.099
  1248G11  C08U85885  10.567   2.461  10.796
  1248G11  C08V85886  10.558   2.333  10.745
  1248G11  C0CY85887  10.503   2.229  10.815
  1248G11  C0CX85888  10.484   2.113  10.749
  1248G11  C0CW85889  10.419   2.007  10.819
  1248G11  C0CV85890  10.390   2.023  10.956
  1248G11  C0D485891  10.409   2.147  11.016
  1248G11  C0CU85892  10.342   1.916  11.024
  1248G11  C0CT85893  10.302   1.796  10.964
  1248G11  C0CS85894  10.326   1.783  10.828
  1248G11  C0D685895  10.316   1.944  11.155
  1248G11  C0EC85896  10.334   2.063  11.217
  1248G11  C07X85897  10.291   2.086  11.350
  1248G11  C0DL85898  10.249   1.844  11.218
  1248G11  C0DK85899  10.212   1.864  11.352
  1248G11  C0DN85900  10.142   1.762  11.385
  1248G11  C0D885901  10.201   1.723  11.169
  1248G11  C08W85902  10.603   2.330  10.614
  1248G11  C0CQ85903  10.589   2.205  10.551
  1248G11  C09385904  10.455   2.257  10.943
  1248G11  C09285905  10.378   2.170  11.149
  1248G11  C08585906  10.439   2.531  11.182
  1248G11  C07S85907  10.511   2.757  11.152
  1248G11  C06F85908  10.559   2.996  11.270
  1248G11  C07O85909  10.378   2.691  11.499
  1248G11  C07N85910  10.328   2.595  11.575
  1248G11  C05D85911  10.481   3.027  11.533
  1248G11  C05C85912  10.575   3.116  11.476
  1248G11  C05N85913  10.593   3.223  11.562
  1248G11  C05M85914  10.376   3.264  11.868
  1248G11  C05I85915  10.240   3.168  12.038
  1248G11  C06185916  10.123   3.208  12.293
  1248G11  C02Q85917  10.027   3.362  12.454
  1248G11  C02O85918   9.957   3.655  12.478
  1248G11  C03Q85919  10.176   3.551  12.205
  1248G11  C03O85920  10.242   3.694  12.024
  1248G11  C03L85921  10.189   4.030  11.969
  1248G11  C02S85922  10.046   3.881  12.277
  1248G11  C02T85923   9.938   4.128  12.307
  1248G11  C03K85924  10.132   4.165  11.979
  1248G11  C03I85925   9.892   4.259  12.322
  1248G11  C03G85926   9.842   4.526  12.382
  1248G11  H00D85927   9.813   4.627  12.406
  1248G11  C03J85928  10.036   4.426  12.021
  1248G11  C03W85929  10.034   4.628  11.821
  1248G11  C04I85930  10.156   4.485  11.677
  1248G11  C04K85931  10.312   4.422  11.457
  1248G11  C04N85932  10.405   4.379  11.364
  1248G11  C04X85933  10.532   4.208  11.245
  1248G11  C05085934  10.663   4.022  11.128
  1248G11  C05W85935  10.599   3.860  11.342
  1248G11  C05S85936  10.748   3.576  10.998
  1248G11  C05R85937  10.702   3.573  11.349
  1248G11  C05O85938  10.644   3.341  11.509
  1248G11  C05B85939  10.599   3.109  11.338
  1248G11  C05A85940  10.714   3.353  11.091
  1248G11  C07R85941  10.581   2.988  11.132
  1248G11  C08N85942  10.629   2.952  10.860
  1248G11  C08M85943  10.649   2.930  10.720
  1248G11  C08L85944  10.684   3.039  10.641
  1248G11  C09185945  10.733   3.424  10.970
  1248G11  C09K85946  10.918   3.426  10.681
  1248G11  H00M85947  10.996   3.455  10.750
  1248G11  C08K85948  10.704   3.170  10.698
  1248G11  C09J85949  10.933   3.377  10.549
  1248G11  C09I85950  11.042   3.325  10.473
  1248G11  C09L85951  11.183   3.354  10.467
  1248G11  H00N85952  11.227   3.435  10.522
  1248G11  C09Q85953  11.261   3.270  10.397
  1248G11  H00O85954  11.368   3.288  10.397
  1248G11  O00B85955  11.218   3.175  10.307
  1248G11  C09G85956  11.082   3.133  10.315
  1248G11  C09F85957  11.058   3.012  10.244
  1248G11  O00A85958  11.175   2.964  10.196
  1248G11  C09P85959  11.160   2.874  10.100
  1248G11  H00P85960  11.191   2.911  10.004
  1248G11  C09O85961  11.073   2.766  10.125
  1248G11  C09D85962  10.946   2.801  10.177
  1248G11  C09C85963  10.825   2.716  10.184
  1248G11  C09N85964  10.806   2.571  10.168
  1248G11  C09T85965  10.919   2.480  10.168
  1248G11  C09S85966  11.048   2.514  10.131
  1248G11  C0CP85967  11.113   2.390  10.147
  1248G11  C0CN85968  11.039   2.282  10.194
  1248G11  C0CO85969  11.098   2.163  10.225
  1248G11  H01485970  11.043   2.084  10.274
  1248G11  C0CZ85971  11.239   2.153  10.190
  1248G11  H01585972  11.275   2.053  10.210
  1248G11  C0D085973  11.314   2.264  10.132
  1248G11  C0G585974  11.454   2.261  10.102
  1248G11  H01F85975  11.510   2.169  10.114
  1248G11  C0G485976  11.514   2.370  10.051
  1248G11  H01G85977  11.621   2.361  10.035
  1248G11  O00H85978  11.449   2.487  10.021
  1248G11  C0D285979  11.320   2.496  10.058
  1248G11  C09V85980  11.252   2.620  10.043
  1248G11  H00Q85981  11.317   2.700  10.010
  1248G11  C0D185982  11.251   2.386  10.110
  1248G11  C09R85983  11.120   2.633  10.092
  1248G11  C09H85984  10.994   3.213  10.395
  1248G11  C09E85985  10.933   2.939  10.235
  1248G11  C09B85986  10.715   2.756  10.254
  1248G11  C08Z85987  10.704   3.008  10.505
  1248G11  C08O85988  10.623   2.797  10.660
  1248G11  C09A85989  10.623   2.661  10.293
  1248G11  C08S85990  10.629   2.468  10.589
  1248G11  C09985991  10.685   2.539  10.248
  1248G11  C09U85992  10.908   2.333  10.202
  1248G11  C0BO85993  10.701   1.895  10.196
  1248G11  C0CL85994  10.638   2.182  10.424
  1248G11  C0D385995  10.530   2.099  10.621
  1248G11  C0D585996  10.391   1.887  10.758
  1248G11  C0BR85997  10.544   1.831  10.374
  1248G11  C0BQ85998  10.614   1.801  10.255
  1248G11  C0BL85999  10.783   1.725  10.044
  1248G11  C0AF86000  10.783   1.471   9.949
  1248G11  C0BH86001  10.507   1.455  10.196
  1248G11  C0BG86002  10.429   1.355  10.258
  1248G11  C0BD86003  10.488   1.196  10.092
  1248G11  C0AG86004  10.761   1.348   9.899
  1248G11  C0AI86005  10.852   1.176   9.761
  1248G11  C0AV86006  10.875   0.924   9.686
  1248G11  C0BB86007  10.534   0.940   9.842
  1248G11  O00C86008  10.790   0.695   9.741
  1248G11  C0BC86009  10.458   0.829   9.880
  1248G11  C0B986010  10.475   1.070  10.029
  1248G11  O00E86011  10.278   0.895  10.280
  1248G11  C0CA86012  10.201   0.924  10.389
  1248G11  O00F86013  10.137   0.828  10.423
  1248G11  C0BF86014  10.425   1.227  10.209
  1248G11  C0C586015  10.214   1.052  10.443
  1248G11  C0C486016  10.146   1.073  10.561
  1248G11  H01186017  10.086   0.991  10.599
  1248G11  C0C886018  10.363   1.381  10.379
  1248G11  C0C286019  10.166   1.201  10.625
  1248G11  C0C386020  10.114   1.231  10.751
  1248G11  C0DY86021  10.048   1.143  10.832
  1248G11  H01686022  10.011   1.044  10.814
  1248G11  C0DX86023  10.041   1.210  10.959
  1248G11  C0DW86024  10.021   1.129  11.072
  1248G11  C0BY86025  10.320   1.529  10.567
  1248G11  C0DB86026  10.150   1.340  10.821
  1248G11  C0CC86027  10.298   1.664  10.766
  1248G11  C0D786028  10.240   1.693  11.036
  1248G11  C0DZ86029  10.109   1.341  10.956
  1248G11  C0DM86030  10.130   1.664  11.280
  1248G11  C0DQ86031  10.020   1.321  11.246
  1248G11  C0DV86032   9.992   1.188  11.199
  1248G11  C0E086033   9.996   0.987  11.088
  1248G11  C0FO86034  10.012   0.811  11.408
  1248G11  C0E386035  10.100   0.886  11.070
  1248G11  H01786036  10.190   0.915  11.019
  1248G11  C0GV86037  10.133   0.736  11.399
  1248G11  C0ES86038   9.984   0.893  11.521
  1248G11  C0GQ86039  10.239   0.733  11.747
  1248G11  C0FJ86040  10.034   0.910  12.007
  1248G11  C0ED86041   9.949   1.033  11.766
  1248G11  C0ER86042   9.698   1.184  11.966
  1248G11  C0EP86043   9.760   1.401  11.927
  1248G11  C0E686044   9.919   1.239  11.617
  1248G11  C0DE86045   9.982   1.539  11.549
  1248G11  C0EA86046   9.834   1.646  11.888
  1248G11  C0DF86047   9.986   1.678  11.556
  1248G11  C08086048   9.968   1.943  11.783
  1248G11  C0DO86049  10.081   1.769  11.509
  1248G11  C0DJ86050  10.227   1.987  11.420
  1248G11  C07K86051  10.124   2.163  11.727
  1248G11  C07W86052  10.299   2.211  11.412
  1248G11  C08386053  10.316   2.461  11.522
  1248G11  C07J86054  10.145   2.288  11.791
  1248G11  C06O86055  10.183   2.540  11.910
  1248G11  C06M86056  10.293   2.615  11.710
  1258G11  C07186057   8.020   3.683  10.304
  1258G11  C07L86058   8.035   3.756  10.181
  1258G11  C07M86059   7.970   3.880  10.163
  1258G11  C07Y86060   7.987   3.959  10.046
  1258G11  C08186061   8.075   3.909   9.942
  1258G11  C08286062   8.087   3.992   9.828
  1258G11  C0DI86063   8.170   3.975   9.709
  1258G11  C0DH86064   8.269   3.874   9.669
  1258G11  C0DG86065   8.346   3.923   9.559
  1258G11  C0E986066   8.412   3.858   9.450
  1258G11  C0E886067   8.387   3.956   9.336
  1258G11  C0E786068   8.436   3.947   9.195
  1258G11  C0EB86069   8.516   3.829   9.156
  1258G11  C0EF86070   8.540   3.788   9.021
  1258G11  C0EE86071   8.483   3.824   8.892
  1258G11  C0FD86072   8.469   3.724   8.791
  1258G11  C0FE86073   8.479   3.580   8.810
  1258G11  H01B86074   8.495   3.545   8.910
  1258G11  C0FF86075   8.467   3.487   8.705
  1258G11  H01A86076   8.469   3.380   8.717
  1258G11  C0FG86077   8.442   3.531   8.577
  1258G11  H01886078   8.454   3.458   8.498
  1258G11  C0FH86079   8.443   3.671   8.550
  1258G11  C0FI86080   8.419   3.727   8.428
  1258G11  H01986081   8.385   3.658   8.352
  1258G11  O00K86082   8.417   3.859   8.401
  1258G11  C0FL86083   8.422   3.949   8.505
  1258G11  C0FK86084   8.449   3.906   8.632
  1258G11  C0FM86085   8.455   4.004   8.732
  1258G11  C0FN86086   8.460   4.141   8.698
  1258G11  C0FP86087   8.435   4.173   8.566
  1258G11  C0GO86088   8.418   4.304   8.524
  1258G11  C0GN86089   8.377   4.354   8.404
  1258G11  C0GR86090   8.359   4.253   8.306
  1258G11  C0GS86091   8.317   4.287   8.177
  1258G11  H01Q86092   8.304   4.206   8.107
  1258G11  C0GT86093   8.286   4.417   8.145
  1258G11  H01O86094   8.254   4.444   8.046
  1258G11  C0GU86095   8.302   4.516   8.243
  1258G11  H01P86096   8.267   4.615   8.218
  1258G11  O00L86097   8.391   4.126   8.343
  1258G11  C0GM86098   8.349   4.491   8.379
  1258G11  C0GL86099   8.374   4.587   8.485
  1258G11  H01R86100   8.352   4.693   8.480
  1258G11  C0GK86101   8.438   4.540   8.602
  1258G11  C0GP86102   8.466   4.595   8.732
  1258G11  C0E286103   8.532   4.491   8.803
  1258G11  C0E186104   8.502   4.516   8.942
  1258G11  C0DU86105   8.444   4.416   9.029
  1258G11  C0DT86106   8.459   4.281   9.031
  1258G11  C0E486107   8.477   4.201   8.924
  1258G11  C0E586108   8.464   4.070   8.962
  1258G11  C0DS86109   8.403   4.200   9.136
  1258G11  C0DR86110   8.328   4.266   9.236
  1258G11  C0DD86111   8.267   4.205   9.341
  1258G11  C0DC86112   8.193   4.314   9.405
  1258G11  C0DP86113   8.207   4.444   9.337
  1258G11  C0DA86114   8.145   4.581   9.372
  1258G11  C0D986115   8.068   4.631   9.492
  1258G11  C0CR86116   8.033   4.767   9.508
  1258G11  C0C086117   8.063   4.860   9.411
  1258G11  C0BZ86118   8.035   4.999   9.411
  1258G11  C0C186119   8.080   5.092   9.317
  1258G11  C0C786120   8.055   5.227   9.327
  1258G11  C0C686121   8.102   5.318   9.230
  1258G11  C0C986122   8.069   5.455   9.242
  1258G11  C0B886123   8.121   5.544   9.147
  1258G11  C0B786124   8.079   5.683   9.145
  1258G11  C0B686125   8.112   5.793   9.057
  1258G11  C0B586126   8.248   5.821   9.010
  1258G11  H00Z86127   8.331   5.753   8.996
  1258G11  C0B486128   8.258   5.965   9.017
  1258G11  H01086129   8.348   6.026   9.017
  1258G11  C0B386130   8.133   6.022   9.054
  1258G11  C0AP86131   8.079   6.128   9.144
  1258G11  C0AQ86132   7.966   6.069   9.195
  1258G11  C0AR86133   7.918   6.114   9.319
  1258G11  C0AS86134   7.844   6.024   9.380
  1258G11  C0AT86135   7.849   5.889   9.361
  1258G11  C0BA86136   7.924   5.846   9.254
  1258G11  C0AU86137   7.831   5.804   9.469
  1258G11  C0BE86138   7.881   5.674   9.459
  1258G11  C0BI86139   7.849   5.589   9.563
  1258G11  C0BJ86140   7.787   5.636   9.680
  1258G11  C0BK86141   7.758   5.550   9.788
  1258G11  C0BW86142   7.778   5.417   9.773
  1258G11  C0BV86143   7.849   5.367   9.661
  1258G11  C0BU86144   7.871   5.230   9.646
  1258G11  C0BX86145   7.939   5.182   9.540
  1258G11  C0BT86146   7.827   5.146   9.750
  1258G11  C0CD86147   7.864   5.013   9.741
  1258G11  C0CB86148   7.933   4.960   9.632
  1258G11  C0CE86149   7.819   4.923   9.834
  1258G11  C0CK86150   7.753   4.970   9.954
  1258G11  C0BS86151   7.721   5.106   9.961
  1258G11  C0CJ86152   7.639   5.155  10.068
  1258G11  C0BP86153   7.613   5.291  10.075
  1258G11  C0CI86154   7.536   5.343  10.179
  1258G11  C0CH86155   7.476   5.469  10.152
  1258G11  H01286156   7.391   5.488  10.216
  1258G11  C0BN86157   7.533   5.563  10.066
  1258G11  C0CG86158   7.496   5.700  10.076
  1258G11  C0CF86159   7.395   5.749  10.172
  1258G11  H01386160   7.345   5.683  10.241
  1258G11  O00G86161   7.383   5.882  10.199
  1258G11  C0AA86162   7.453   5.972  10.113
  1258G11  C0A986163   7.430   6.107  10.127
  1258G11  H00U86164   7.375   6.140  10.214
  1258G11  C0A886165   7.496   6.198  10.047
  1258G11  H00V86166   7.471   6.295  10.085
  1258G11  C0A786167   7.593   6.160   9.953
  1258G11  C0A686168   7.607   6.022   9.926
  1258G11  C0A586169   7.679   5.971   9.819
  1258G11  C0A486170   7.709   6.054   9.708
  1258G11  C0A386171   7.742   6.191   9.679
  1258G11  C0A286172   7.760   6.279   9.786
  1258G11  C0A186173   7.799   6.409   9.765
  1258G11  C0A086174   7.892   6.473   9.667
  1258G11  C09Z86175   7.931   6.604   9.699
  1258G11  C09Y86176   8.030   6.669   9.633
  1258G11  H00Y86177   8.070   6.764   9.663
  1258G11  C09X86178   8.082   6.606   9.515
  1258G11  C09W86179   8.188   6.673   9.450
  1258G11  H00R86180   8.226   6.768   9.483
  1258G11  C0AX86181   8.255   6.622   9.339
  1258G11  H00S86182   8.336   6.681   9.298
  1258G11  C0AW86183   8.208   6.499   9.290
  1258G11  H00T86184   8.267   6.459   9.209
  1258G11  C0AN86185   8.106   6.424   9.355
  1258G11  C0AO86186   8.055   6.308   9.296
  1258G11  C0AM86187   8.045   6.480   9.471
  1258G11  C0B286188   7.879   6.680   9.806
  1258G11  O00D86189   7.919   6.789   9.849
  1258G11  C0B186190   7.773   6.620   9.888
  1258G11  H00W86191   7.727   6.680   9.965
  1258G11  C0AL86192   7.942   6.414   9.544
  1258G11  C0AK86193   7.899   6.289   9.490
  1258G11  C0B086194   7.744   6.485   9.871
  1258G11  C0AZ86195   7.658   6.408   9.951
  1258G11  H00X86196   7.595   6.435  10.034
  1258G11  C0AJ86197   7.804   6.200   9.550
  1258G11  C0AH86198   7.733   5.987   9.591
  1258G11  C0AE86199   7.704   5.831   9.807
  1258G11  C0AD86200   7.653   5.743   9.900
  1258G11  C0AY86201   7.673   6.274   9.901
  1258G11  C0AB86202   7.543   5.929  10.013
  1258G11  C0AC86203   7.567   5.792   9.998
  1258G11  C0BM86204   7.626   5.518   9.981
  1258G11  C0CM86205   7.511   5.272  10.297
  1258G11  C09M86206   7.518   5.131  10.284
  1258G11  C09886207   7.440   5.055  10.377
  1258G11  C08R86208   7.448   4.922  10.426
  1258G11  C08Q86209   7.332   4.871  10.498
  1258G11  C08P86210   7.311   4.783  10.613
  1258G11  C08Y86211   7.207   4.815  10.703
  1258G11  C09786212   7.185   4.952  10.722
  1258G11  C09686213   7.161   4.995  10.852
  1258G11  C09086214   7.140   4.874  10.918
  1258G11  C09586215   7.129   4.857  11.062
  1258G11  C09486216   7.130   4.736  11.131
  1258G11  C08J86217   7.172   4.605  11.091
  1258G11  C08I86218   7.216   4.536  11.208
  1258G11  C08H86219   7.290   4.420  11.153
  1258G11  C08G86220   7.309   4.440  11.001
  1258G11  C08F86221   7.366   4.373  10.885
  1258G11  C08E86222   7.411   4.237  10.897
  1258G11  C05986223   7.386   4.145  11.004
  1258G11  C05886224   7.427   4.008  10.997
  1258G11  C05786225   7.418   3.909  11.095
  1258G11  C05686226   7.358   3.956  11.217
  1258G11  C05586227   7.290   4.074  11.229
  1258G11  C05486228   7.285   4.113  11.364
  1258G11  C05386229   7.351   4.006  11.445
  1258G11  C05286230   7.394   4.001  11.579
  1258G11  C05186231   7.387   4.122  11.666
  1258G11  C05U86232   7.340   4.256  11.626
  1258G11  C05T86233   7.304   4.315  11.502
  1258G11  C06K86234   7.226   4.428  11.537
  1258G11  H00J86235   7.169   4.484  11.464
  1258G11  C06L86236   7.267   4.470  11.668
  1258G11  H00I86237   7.237   4.566  11.708
  1258G11  C05V86238   7.331   4.352  11.724
  1258G11  C06J86239   7.345   4.339  11.859
  1258G11  H00K86240   7.319   4.413  11.933
  1258G11  C05X86241   7.400   4.217  11.903
  1258G11  C06I86242   7.423   4.188  12.041
  1258G11  H00L86243   7.389   4.260  12.113
  1258G11  C04Z86244   7.478   4.067  12.090
  1258G11  C06H86245   7.508   4.044  12.227
  1258G11  H00H86246   7.497   4.125  12.298
  1258G11  C04Y86247   7.576   3.925  12.268
  1258G11  C06G86248   7.610   3.912  12.410
  1258G11  O00986249   7.586   3.998  12.495
  1258G11  O00886250   7.674   3.797  12.444
  1258G11  C04P86251   7.712   3.703  12.355
  1258G11  C04J86252   7.791   3.586  12.388
  1258G11  C04Q86253   7.835   3.541  12.510
  1258G11  H00E86254   7.822   3.594  12.603
  1258G11  C04M86255   7.911   3.421  12.528
  1258G11  C04R86256   7.949   3.368  12.655
  1258G11  H00F86257   7.919   3.415  12.747
  1258G11  C04S86258   8.011   3.246  12.664
  1258G11  H00G86259   8.030   3.207  12.763
  1258G11  O00786260   8.059   3.178  12.555
  1258G11  C03V86261   8.031   3.236  12.435
  1258G11  C03U86262   8.080   3.171  12.322
  1258G11  O00686263   8.150   3.052  12.342
  1258G11  C03F86264   8.221   3.007  12.236
  1258G11  C03E86265   8.193   3.040  12.101
  1258G11  C03D86266   8.100   3.142  12.084
  1258G11  C03C86267   8.066   3.182  11.955
  1258G11  C03B86268   8.123   3.105  11.852
  1258G11  C03A86269   8.084   3.123  11.720
  1258G11  C03986270   7.986   3.218  11.679
  1258G11  C03886271   7.978   3.202  11.533
  1258G11  C03786272   8.066   3.095  11.507
  1258G11  C03686273   8.082   3.048  11.381
  1258G11  C02R86274   8.178   2.965  11.325
  1258G11  C03586275   8.166   2.977  11.185
  1258G11  C03R86276   8.064   3.064  11.155
  1258G11  C03S86277   8.054   3.138  11.037
  1258G11  C04986278   7.969   3.245  11.029
  1258G11  C04886279   7.907   3.280  11.150
  1258G11  C03P86280   7.941   3.227  11.286
  1258G11  C04786281   7.819   3.384  11.136
  1258G11  C04686282   7.741   3.448  11.234
  1258G11  C04586283   7.737   3.436  11.373
  1258G11  C03T86284   7.812   3.362  11.462
  1258G11  C04486285   7.780   3.403  11.597
  1258G11  C04386286   7.663   3.477  11.586
  1258G11  C04286287   7.636   3.553  11.697
  1258G11  C04186288   7.738   3.498  11.791
  1258G11  C04086289   7.756   3.534  11.924
  1258G11  C03Z86290   7.823   3.460  12.026
  1258G11  C04H86291   7.792   3.530  12.146
  1258G11  C04G86292   7.708   3.636  12.116
  1258G11  C03N86293   7.913   3.345  12.039
  1258G11  C03Y86294   7.950   3.316  12.168
  1258G11  C03X86295   7.914   3.392  12.284
  1258G11  C04F86296   7.691   3.645  11.987
  1258G11  C04E86297   7.603   3.750  11.941
  1258G11  C04O86298   7.570   3.851  12.036
  1258G11  C04D86299   7.550   3.757  11.812
  1258G11  C04V86300   7.482   3.876  11.774
  1258G11  C04W86301   7.466   3.988  11.863
  1258G11  C04C86302   7.547   3.670  11.706
  1258G11  C04L86303   7.484   3.748  11.599
  1258G11  C04U86304   7.496   3.714  11.458
  1258G11  C05Q86305   7.458   3.790  11.345
  1258G11  C05P86306   7.501   3.733  11.230
  1258G11  C04T86307   7.584   3.624  11.257
  1258G11  C04B86308   7.578   3.611  11.399
  1258G11  C03M86309   7.827   3.390  11.734
  1258G11  C04A86310   7.648   3.509  11.456
  1258G11  C05H86311   7.666   3.545  11.174
  1258G11  C05G86312   7.705   3.561  11.040
  1258G11  C05F86313   7.637   3.640  10.943
  1258G11  C05E86314   7.698   3.670  10.819
  1258G11  C05L86315   7.807   3.625  10.736
  1258G11  C05K86316   7.878   3.504  10.769
  1258G11  C05J86317   7.876   3.427  10.891
  1258G11  C06686318   7.976   3.465  10.668
  1258G11  C06586319   7.995   3.545  10.549
  1258G11  C06486320   7.912   3.651  10.521
  1258G11  C06N86321   8.091   3.507  10.452
  1258G11  C06986322   8.173   3.399  10.477
  1258G11  C06P86323   8.269   3.361  10.377
  1258G11  C06R86324   8.362   3.260  10.406
  1258G11  C06B86325   8.357   3.194  10.528
  1258G11  C06S86326   8.449   3.094  10.547
  1258G11  C02G86327   8.448   3.026  10.666
  1258G11  C02F86328   8.546   2.936  10.705
  1258G11  C02786329   8.650   2.914  10.616
  1258G11  C02686330   8.755   2.830  10.651
  1258G11  C00E86331   8.861   2.812  10.561
  1258G11  C00D86332   8.963   2.722  10.602
  1258G11  C00C86333   9.075   2.709  10.518
  1258G11  C00B86334   9.087   2.781  10.399
  1258G11  C01586335   8.979   2.861  10.358
  1258G11  C07F86336   8.978   2.931  10.241
  1258G11  C07E86337   8.872   3.012  10.204
  1258G11  C06W86338   8.757   3.025  10.287
  1258G11  C06V86339   8.758   2.959  10.408
  1258G11  C06X86340   8.658   3.111  10.249
  1258G11  C07B86341   8.668   3.179  10.133
  1258G11  C07C86342   8.782   3.170  10.047
  1258G11  C0FU86343   8.791   3.244   9.932
  1258G11  C0F786344   8.900   3.241   9.853
  1258G11  C0F686345   8.907   3.315   9.738
  1258G11  C0F886346   9.019   3.307   9.656
  1258G11  C0F986347   9.025   3.372   9.535
  1258G11  C0FA86348   9.131   3.353   9.449
  1258G11  C0FZ86349   9.242   3.285   9.493
  1258G11  C0G086350   9.356   3.275   9.414
  1258G11  C0GD86351   9.360   3.318   9.284
  1258G11  C0FC86352   9.241   3.381   9.234
  1258G11  C0GH86353   9.237   3.438   9.105
  1258G11  C0EY86354   9.116   3.500   9.061
  1258G11  C0EX86355   9.100   3.534   8.928
  1258G11  C0EW86356   8.980   3.585   8.881
  1258G11  C0FR86357   8.958   3.613   8.744
  1258G11  H01D86358   8.868   3.653   8.700
  1258G11  C0FS86359   9.065   3.603   8.651
  1258G11  H01C86360   9.052   3.647   8.553
  1258G11  C0GJ86361   9.179   3.546   8.704
  1258G11  H01N86362   9.264   3.528   8.640
  1258G11  C0EV86363   8.878   3.610   8.971
  1258G11  C0FT86364   8.753   3.665   8.927
  1258G11  H01E86365   8.728   3.685   8.825
  1258G11  C0EU86366   8.895   3.582   9.107
  1258G11  C0ET86367   8.805   3.618   9.201
  1258G11  C0EI86368   8.807   3.587   9.335
  1258G11  C0F186369   8.911   3.505   9.372
  1258G11  C0F086370   9.021   3.484   9.282
  1258G11  C0EH86371   8.697   3.615   9.418
  1258G11  C0EG86372   8.586   3.701   9.379
  1258G11  C0EJ86373   8.695   3.550   9.541
  1258G11  C0F386374   8.797   3.457   9.577
  1258G11  C0EK86375   8.586   3.563   9.626
  1258G11  C0EL86376   8.485   3.659   9.598
  1258G11  C0EM86377   8.389   3.665   9.703
  1258G11  C0EN86378   8.374   3.565   9.797
  1258G11  C07I86379   8.288   3.608   9.898
  1258G11  C07486380   8.280   3.543  10.023
  1258G11  C07386381   8.195   3.600  10.112
  1258G11  C07286382   8.191   3.535  10.233
  1258G11  C07586383   8.371   3.444  10.044
  1258G11  C07686384   8.472   3.418   9.953
  1258G11  C07886385   8.573   3.332   9.983
  1258G11  C07G86386   8.370   3.384  10.168
  1258G11  C07086387   8.466   3.290  10.196
  1258G11  C07Z86388   8.225   3.725   9.862
  1258G11  C07786389   8.479   3.481   9.829
  1258G11  C0EO86390   8.582   3.483   9.738
  1258G11  C0F486391   8.687   3.400   9.775
  1258G11  C0EQ86392   8.688   3.682   9.159
  1258G11  C0FQ86393   9.199   3.515   8.837
  1258G11  C0GI86394   9.320   3.464   8.886
  1258G11  H01L86395   9.385   3.442   8.803
  1258G11  C0EZ86396   9.012   3.521   9.149
  1258G11  C0GG86397   9.339   3.417   9.015
  1258G11  C0GF86398   9.455   3.350   9.057
  1258G11  H01M86399   9.542   3.343   8.994
  1258G11  C0GE86400   9.465   3.312   9.191
  1258G11  H01K86401   9.560   3.278   9.231
  1258G11  O00J86402   9.469   3.211   9.457
  1258G11  C0GA86403   9.468   3.147   9.580
  1258G11  C0G986404   9.576   3.077   9.626
  1258G11  H01H86405   9.663   3.087   9.562
  1258G11  C0G886406   9.586   3.024   9.756
  1258G11  C0G786407   9.702   2.962   9.817
  1258G11  H01I86408   9.792   2.927   9.768
  1258G11  O00I86409   9.699   2.929   9.952
  1258G11  C0G686410   9.581   2.913  10.011
  1258G11  H01J86411   9.578   2.879  10.113
  1258G11  C02D86412   9.461   2.954   9.953
  1258G11  C02C86413   9.340   2.935  10.019
  1258G11  C01786414   9.323   2.848  10.132
  1258G11  C01686415   9.199   2.846  10.203
  1258G11  O00186416   9.420   2.755  10.160
  1258G11  C01886417   9.433   2.694  10.285
  1258G11  C00986418   9.321   2.696  10.371
  1258G11  C00886419   9.300   2.627  10.499
  1258G11  C00786420   9.391   2.571  10.590
  1258G11  C00686421   9.534   2.594  10.578
  1258G11  C00586422   9.626   2.552  10.677
  1258G11  C00486423   9.598   2.533  10.818
  1258G11  C00386424   9.483   2.541  10.906
  1258G11  C00286425   9.499   2.539  11.053
  1258G11  C00P86426   9.384   2.548  11.138
  1258G11  C00O86427   9.405   2.548  11.281
  1258G11  C00N86428   9.297   2.557  11.370
  1258G11  C01086429   9.320   2.558  11.508
  1258G11  C01186430   9.214   2.587  11.594
  1258G11  C01Q86431   9.245   2.600  11.729
  1258G11  C01U86432   9.375   2.596  11.778
  1258G11  C01286433   9.482   2.583  11.684
  1258G11  H00086434   9.585   2.604  11.712
  1258G11  C01V86435   9.394   2.621  11.916
  1258G11  H00786436   9.494   2.637  11.954
  1258G11  O00586437   9.289   2.645  12.005
  1258G11  C01W86438   9.169   2.665  11.948
  1258G11  C03186439   9.075   2.724  12.033
  1258G11  C03286440   8.959   2.776  11.977
  1258G11  H00A86441   8.895   2.830  12.045
  1258G11  C03386442   8.928   2.757  11.843
  1258G11  H00B86443   8.848   2.812  11.796
  1258G11  C01O86444   9.014   2.673  11.764
  1258G11  C01N86445   8.980   2.645  11.629
  1258G11  C01M86446   8.844   2.660  11.573
  1258G11  C01L86447   8.708   2.710  11.606
  1258G11  C01K86448   8.636   2.712  11.480
  1258G11  C01Y86449   8.519   2.783  11.447
  1258G11  C02I86450   8.450   2.842  11.552
  1258G11  C02N86451   8.329   2.910  11.519
  1258G11  C02M86452   8.266   2.974  11.627
  1258G11  C02L86453   8.305   2.959  11.762
  1258G11  C02K86454   8.416   2.883  11.791
  1258G11  C02U86455   8.442   2.846  11.926
  1258G11  C02V86456   8.365   2.896  12.031
  1258G11  C03H86457   8.391   2.865  12.169
  1258G11  H00C86458   8.476   2.808  12.205
  1258G11  C02W86459   8.527   2.737  11.951
  1258G11  C02X86460   8.609   2.703  11.849
  1258G11  C02Y86461   8.675   2.588  11.898
  1258G11  H00886462   8.745   2.516  11.857
  1258G11  C02Z86463   8.620   2.554  12.033
  1258G11  O00486464   8.670   2.471  12.111
  1258G11  O00386465   8.531   2.648  12.061
  1258G11  C02J86466   8.497   2.829  11.689
  1258G11  C01Z86467   8.492   2.797  11.315
  1258G11  C02086468   8.581   2.747  11.218
  1258G11  C01I86469   8.697   2.681  11.252
  1258G11  C01H86470   8.799   2.660  11.165
  1258G11  C00K86471   8.918   2.610  11.215
  1258G11  C01S86472   8.945   2.595  11.351
  1258G11  C01486473   9.066   2.581  11.410
  1258G11  C00J86474   9.019   2.584  11.131
  1258G11  C00I86475   8.999   2.599  10.994
  1258G11  C00H86476   8.878   2.649  10.942
  1258G11  C00G86477   8.863   2.689  10.809
  1258G11  C00S86478   9.103   2.580  10.907
  1258G11  C00T86479   9.082   2.608  10.777
  1258G11  C00U86480   9.183   2.573  10.687
  1258G11  C00R86481   9.236   2.563  10.953
  1258G11  C00L86482   9.149   2.569  11.179
  1258G11  C02886483   8.778   2.683  11.030
  1258G11  C02386484   8.663   2.744  10.988
  1258G11  C02486485   8.651   2.786  10.857
  1258G11  C02186486   8.561   2.773  11.086
  1258G11  C02286487   8.459   2.853  11.048
  1258G11  C02H86488   8.448   2.902  10.915
  1258G11  C03086489   8.345   2.988  10.877
  1258G11  C03486490   8.249   3.013  10.970
  1258G11  C02P86491   8.362   2.885  11.140
  1258G11  C02B86492   8.380   2.859  11.277
  1258G11  C01J86493   8.709   2.642  11.384
  1258G11  C01X86494   8.615   2.748  11.721
  1258G11  C01T86495   8.836   2.623  11.433
  1258G11  H00986496   9.102   2.741  12.137
  1258G11  C01P86497   9.142   2.644  11.809
  1258G11  C01R86498   9.085   2.600  11.546
  1258G11  C00Z86499   9.454   2.559  11.551
  1258G11  O00086500   9.561   2.533  11.464
  1258G11  C00M86501   9.170   2.568  11.318
  1258G11  C00Y86502   9.537   2.532  11.333
  1258G11  C01386503   9.644   2.531  11.244
  1258G11  H00186504   9.740   2.518  11.291
  1258G11  C00Q86505   9.254   2.556  11.089
  1258G11  C00186506   9.626   2.533  11.107
  1258G11  C00086507   9.733   2.521  11.020
  1258G11  H00686508   9.826   2.506  11.073
  1258G11  C00W86509   9.350   2.560  10.863
  1258G11  C01G86510   9.721   2.521  10.886
  1258G11  H00586511   9.815   2.525  10.834
  1258G11  C01C86512   9.744   2.519  10.605
  1258G11  H00286513   9.830   2.474  10.654
  1258G11  C01B86514   9.728   2.550  10.465
  1258G11  C01D86515   9.818   2.533  10.360
  1258G11  H00386516   9.916   2.491  10.379
  1258G11  C01E86517   9.776   2.570  10.239
  1258G11  H00486518   9.847   2.554  10.159
  1258G11  O00286519   9.652   2.625  10.213
  1258G11  C01A86520   9.599   2.601  10.447
  1258G11  C00V86521   9.320   2.566  10.716
  1258G11  C01986522   9.560   2.639  10.316
  1258G11  C02E86523   9.230   3.008   9.978
  1258G11  C0FX86524   9.235   3.088   9.862
  1258G11  C0FW86525   9.124   3.157   9.818
  1258G11  C0GB86526   9.349   3.089   9.785
  1258G11  C0G386527   9.107   3.002  10.051
  1258G11  C07H86528   8.997   3.078  10.008
  1258G11  C0GC86529   9.466   3.020   9.832
  1258G11  C0G286530   9.355   3.155   9.660
  1258G11  C0G186531   9.240   3.225   9.618
  1258G11  C0FB86532   9.133   3.407   9.321
  1258G11  C0F286533   8.911   3.447   9.494
  1258G11  C0FY86534   9.129   3.232   9.699
  1258G11  C0F586535   8.798   3.390   9.697
  1258G11  C0FV86536   9.008   3.155   9.892
  1258G11  C07986537   8.685   3.327   9.895
  1258G11  C07A86538   8.568   3.266  10.103
  1258G11  C06Y86539   8.556   3.137  10.338
  1258G11  C07D86540   8.885   3.086  10.086
  1258G11  C01F86541   9.093   2.924  10.165
  1258G11  C00A86542   9.203   2.768  10.323
  1258G11  C00X86543   9.174   2.624  10.558
  1258G11  C00F86544   8.971   2.666  10.723
  1258G11  C02986545   8.868   2.882  10.441
  1258G11  C02586546   8.754   2.766  10.769
  1258G11  C06U86547   8.649   2.977  10.491
  1258G11  C02A86548   8.550   2.874  10.826
  1258G11  C05Y86549   8.345   3.053  10.756
  1258G11  C05Z86550   8.251   3.153  10.732
  1258G11  C06086551   8.151   3.184  10.828
  1258G11  C06286552   8.057   3.286  10.806
  1258G11  C06T86553   8.546   3.063  10.454
  1258G11  C06A86554   8.258   3.225  10.618
  1258G11  C06Z86555   8.463   3.226  10.315
  1258G11  C06Q86556   8.276   3.427  10.258
  1258G11  C06886557   8.161   3.326  10.598
  1258G11  C06786558   8.064   3.356  10.688
  1258G11  C06386559   7.825   3.699  10.617
  1258G11  C06C86560   7.764   3.824  10.596
  1258G11  C06D86561   7.670   3.876  10.682
  1258G11  C06E86562   7.609   4.000  10.677
  1258G11  C07Q86563   7.636   4.075  10.568
  1258G11  C07P86564   7.725   4.026  10.475
  1258G11  C07T86565   7.751   4.100  10.357
  1258G11  C07U86566   7.823   4.052  10.251
  1258G11  C07V86567   7.849   4.134  10.141
  1258G11  C08486568   7.796   4.265  10.131
  1258G11  C08C86569   7.734   4.309  10.240
  1258G11  C08B86570   7.695   4.441  10.241
  1258G11  C08A86571   7.630   4.496  10.349
  1258G11  C08986572   7.588   4.417  10.455
  1258G11  C08886573   7.514   4.473  10.557
  1258G11  C08786574   7.470   4.395  10.664
  1258G11  C08686575   7.511   4.258  10.669
  1258G11  C08X86576   7.472   4.607  10.544
  1258G11  C08T86577   7.543   4.695  10.450
  1258G11  C08D86578   7.623   4.281  10.457
  1258G11  C08U86579   7.614   4.633  10.356
  1258G11  C08V86580   7.662   4.713  10.255
  1258G11  C0CY86581   7.709   4.661  10.135
  1258G11  C0CX86582   7.739   4.754  10.038
  1258G11  C0CW86583   7.800   4.706   9.924
  1258G11  C0CV86584   7.832   4.568   9.915
  1258G11  C0D486585   7.795   4.482  10.016
  1258G11  C0CU86586   7.903   4.524   9.809
  1258G11  C0CT86587   7.945   4.607   9.708
  1258G11  C0CS86588   7.907   4.740   9.716
  1258G11  C0D686589   7.931   4.389   9.819
  1258G11  C0EC86590   7.897   4.297   9.918
  1258G11  C07X86591   7.943   4.163   9.923
  1258G11  C0DL86592   8.007   4.336   9.715
  1258G11  C0DK86593   8.043   4.202   9.718
  1258G11  C0DN86594   8.112   4.184   9.604
  1258G11  C0D886595   8.052   4.408   9.601
  1258G11  C08W86596   7.626   4.843  10.283
  1258G11  C0CQ86597   7.638   4.937  10.168
  1258G11  C09386598   7.728   4.528  10.128
  1258G11  C09286599   7.819   4.344  10.017
  1258G11  C08586600   7.697   4.228  10.345
  1258G11  C07S86601   7.584   4.205  10.563
  1258G11  C06F86602   7.521   4.048  10.776
  1258G11  C07O86603   7.786   3.902  10.483
  1258G11  C07N86604   7.871   3.855  10.381
  1258G11  C05D86605   7.639   3.794  10.786
  1258G11  C05C86606   7.540   3.839  10.873
  1258G11  C05N86607   7.545   3.745  10.978
  1258G11  C05M86608   7.793   3.453  11.006
  1258G11  C05I86609   7.962   3.319  10.910
  1258G11  C06186610   8.150   3.109  10.943
  1258G11  C02Q86611   8.263   2.957  11.094
  1258G11  C02O86612   8.296   2.910  11.381
  1258G11  C03Q86613   8.017   3.107  11.277
  1258G11  C03O86614   7.908   3.269  11.420
  1258G11  C03L86615   7.925   3.298  11.783
  1258G11  C02S86616   8.147   3.054  11.614
  1258G11  C02T86617   8.231   3.016  11.869
  1258G11  C03K86618   7.965   3.276  11.926
  1258G11  C03I86619   8.265   2.987  12.000
  1258G11  C03G86620   8.316   2.914  12.271
  1258G11  H00D86621   8.330   2.892  12.375
  1258G11  C03J86622   8.039   3.212  12.187
  1258G11  C03W86623   7.951   3.351  12.414
  1258G11  C04I86624   7.835   3.503  12.279
  1258G11  C04K86625   7.679   3.726  12.220
  1258G11  C04N86626   7.613   3.837  12.171
  1258G11  C04X86627   7.499   3.964  11.997
  1258G11  C05086628   7.418   4.108  11.812
  1258G11  C05W86629   7.450   3.880  11.640
  1258G11  C05S86630   7.296   4.251  11.368
  1258G11  C05R86631   7.387   3.907  11.342
  1258G11  C05O86632   7.490   3.788  11.104
  1258G11  C05B86633   7.494   3.972  10.884
  1258G11  C05A86634   7.330   4.176  11.138
  1258G11  C07R86635   7.477   4.182  10.780
  1258G11  C08N86636   7.392   4.453  10.769
  1258G11  C08M86637   7.337   4.584  10.751
  1258G11  C08L86638   7.251   4.639  10.855
  1258G11  C09186639   7.314   4.296  11.224
  1258G11  C09K86640   7.256   4.638  11.301
  1258G11  H00M86641   7.325   4.620  11.382
  1258G11  C08K86642   7.242   4.562  10.972
  1258G11  C09J86643   7.192   4.759  11.259
  1258G11  C09I86644   7.189   4.900  11.275
  1258G11  C09L86645   7.207   4.977  11.395
  1258G11  H00N86646   7.222   4.932  11.492
  1258G11  C09Q86647   7.195   5.113  11.379
  1258G11  H00O86648   7.222   5.173  11.464
  1258G11  O00B86649   7.169   5.181  11.260
  1258G11  C09G86650   7.158   5.113  11.141
  1258G11  C09F86651   7.156   5.193  11.025
  1258G11  O00A86652   7.167   5.329  11.043
  1258G11  C09P86653   7.161   5.405  10.931
  1258G11  H00P86654   7.087   5.484  10.932
  1258G11  C09O86655   7.225   5.365  10.809
  1258G11  C09D86656   7.220   5.222  10.779
  1258G11  C09C86657   7.249   5.163  10.649
  1258G11  C09N86658   7.321   5.203  10.530
  1258G11  C09T86659   7.399   5.320  10.530
  1258G11  C09S86660   7.365   5.434  10.608
  1258G11  C0CP86661   7.436   5.536  10.545
  1258G11  C0CN86662   7.522   5.492  10.442
  1258G11  C0CO86663   7.611   5.583  10.385
  1258G11  H01486664   7.685   5.564  10.309
  1258G11  C0CZ86665   7.585   5.715  10.417
  1258G11  H01586666   7.635   5.788  10.354
  1258G11  C0D086667   7.482   5.759  10.508
  1258G11  C0G586668   7.439   5.900  10.533
  1258G11  H01F86669   7.484   5.978  10.473
  1258G11  C0G486670   7.360   5.930  10.633
  1258G11  H01G86671   7.336   6.032  10.662
  1258G11  O00H86672   7.319   5.839  10.728
  1258G11  C0D286673   7.343   5.707  10.695
  1258G11  C09V86674   7.281   5.595  10.760
  1258G11  H00Q86675   7.217   5.633  10.839
  1258G11  C0D186676   7.420   5.667  10.586
  1258G11  C09R86677   7.289   5.460  10.722
  1258G11  C09H86678   7.150   4.965  11.153
  1258G11  C09E86679   7.176   5.135  10.891
  1258G11  C09B86680   7.213   5.033  10.621
  1258G11  C08Z86681   7.199   4.775  10.830
  1258G11  C08O86682   7.373   4.659  10.636
  1258G11  C09A86683   7.252   4.986  10.497
  1258G11  C08S86684   7.560   4.831  10.407
  1258G11  C09986685   7.317   5.098  10.431
  1258G11  C09U86686   7.480   5.358  10.413
  1258G11  C0BO86687   7.661   5.384   9.978
  1258G11  C0CL86688   7.594   5.071  10.172
  1258G11  C0D386689   7.714   4.886  10.059
  1258G11  C0D586690   7.843   4.790   9.827
  1258G11  C0BR86691   7.758   5.196   9.859
  1258G11  C0BQ86692   7.732   5.331   9.870
  1258G11  C0BL86693   7.681   5.608   9.889
  1258G11  C0AF86694   7.759   5.773   9.693
  1258G11  C0BH86695   7.885   5.458   9.559
  1258G11  C0BG86696   7.953   5.408   9.445
  1258G11  C0BD86697   7.953   5.630   9.347
  1258G11  C0AG86698   7.780   5.852   9.584
  1258G11  C0AI86699   7.787   6.073   9.495
  1258G11  C0AV86700   7.956   6.237   9.369
  1258G11  C0BB86701   7.953   5.937   9.151
  1258G11  O00C86702   8.128   6.247   9.195
  1258G11  C0BC86703   8.039   5.912   9.046
  1258G11  C0B986704   7.984   5.718   9.244
  1258G11  O00E86705   8.207   5.501   9.049
  1258G11  C0CA86706   8.211   5.368   9.016
  1258G11  O00F86707   8.272   5.335   8.912
  1258G11  C0BF86708   7.996   5.500   9.349
  1258G11  C0C586709   8.163   5.278   9.113
  1258G11  C0C486710   8.189   5.138   9.097
  1258G11  H01186711   8.244   5.100   9.012
  1258G11  C0C886712   7.985   5.275   9.438
  1258G11  C0C286713   8.146   5.051   9.201
  1258G11  C0C386714   8.170   4.910   9.202
  1258G11  C0DY86715   8.247   4.840   9.110
  1258G11  H01686716   8.291   4.887   9.023
  1258G11  C0DX86717   8.249   4.701   9.151
  1258G11  C0DW86718   8.336   4.607   9.081
  1258G11  C0BY86719   7.972   5.046   9.527
  1258G11  C0DB86720   8.132   4.818   9.298
  1258G11  C0CC86721   7.957   4.822   9.616
  1258G11  C0D786722   8.025   4.552   9.601
  1258G11  C0DZ86723   8.175   4.687   9.281
  1258G11  C0DM86724   8.119   4.306   9.524
  1258G11  C0DQ86725   8.293   4.404   9.230
  1258G11  C0DV86726   8.357   4.475   9.123
  1258G11  C0E086727   8.422   4.629   8.962
  1258G11  C0FO86728   8.505   4.371   8.743
  1258G11  C0E386729   8.379   4.668   8.827
  1258G11  H01786730   8.294   4.730   8.806
  1258G11  C0GV86731   8.466   4.401   8.611
  1258G11  C0ES86732   8.481   4.244   8.794
  1258G11  C0GQ86733   8.413   4.082   8.468
  1258G11  C0FJ86734   8.457   3.765   8.658
  1258G11  C0ED86735   8.462   3.962   8.865
  1258G11  C0ER86736   8.657   3.702   9.024
  1258G11  C0EP86737   8.596   3.745   9.238
  1258G11  C0E686738   8.434   4.063   9.107
  1258G11  C0DE86739   8.306   4.071   9.389
  1258G11  C0EA86740   8.488   3.736   9.476
  1258G11  C0DF86741   8.287   4.038   9.519
  1258G11  C08086742   8.292   3.761   9.740
  1258G11  C0DO86743   8.183   4.069   9.604
  1258G11  C0DJ86744   8.023   4.118   9.824
  1258G11  C07K86745   8.136   3.784   9.962
  1258G11  C07W86746   7.931   4.088  10.039
  1258G11  C08386747   7.888   3.932  10.268
  1258G11  C07J86748   8.122   3.715  10.086
  1258G11  C06O86749   8.100   3.575  10.331
  1258G11  C06M86750   7.933   3.729  10.401
  1268G11  C07186751  10.171   7.408   5.856
  1268G11  C07L86752  10.269   7.303   5.867
  1268G11  C07M86753  10.380   7.307   5.783
  1268G11  C07Y86754  10.481   7.201   5.795
  1268G11  C08186755  10.464   7.094   5.881
  1268G11  C08286756  10.563   6.993   5.878
  1268G11  C0DI86757  10.551   6.857   5.926
  1268G11  C0DH86758  10.460   6.784   6.008
  1268G11  C0DG86759  10.480   6.636   6.000
  1268G11  C0E986760  10.467   6.541   6.110
  1268G11  C0E886761  10.596   6.456   6.093
  1268G11  C0E786762  10.646   6.345   6.175
  1268G11  C0EB86763  10.555   6.286   6.275
  1268G11  C0EF86764  10.590   6.192   6.385
  1268G11  C0EE86765  10.710   6.166   6.454
  1268G11  C0FD86766  10.705   6.145   6.599
  1268G11  C0FE86767  10.592   6.183   6.685
  1268G11  H01B86768  10.507   6.235   6.644
  1268G11  C0FF86769  10.584   6.158   6.816
  1268G11  H01A86770  10.500   6.198   6.871
  1268G11  C0FG86771  10.696   6.091   6.874
  1268G11  H01886772  10.700   6.099   6.982
  1268G11  C0FH86773  10.810   6.052   6.801
  1268G11  C0FI86774  10.930   5.994   6.855
  1268G11  H01986775  10.935   5.957   6.957
  1268G11  O00K86776  11.043   5.974   6.781
  1268G11  C0FL86777  11.048   6.017   6.651
  1268G11  C0FK86778  10.928   6.058   6.582
  1268G11  C0FM86779  10.932   6.085   6.440
  1268G11  C0FN86780  11.045   6.032   6.372
  1268G11  C0FP86781  11.161   5.997   6.440
  1268G11  C0GO86782  11.281   5.975   6.378
  1268G11  C0GN86783  11.403   5.955   6.443
  1268G11  C0GR86784  11.395   5.950   6.583
  1268G11  C0GS86785  11.511   5.932   6.660
  1268G11  H01Q86786  11.502   5.926   6.768
  1268G11  C0GT86787  11.634   5.936   6.589
  1268G11  H01O86788  11.733   5.928   6.632
  1268G11  C0GU86789  11.640   5.938   6.449
  1268G11  H01P86790  11.738   5.938   6.403
  1268G11  O00L86791  11.278   5.963   6.648
  1268G11  C0GM86792  11.529   5.947   6.369
  1268G11  C0GL86793  11.520   5.955   6.227
  1268G11  H01R86794  11.603   5.954   6.159
  1268G11  C0GK86795  11.394   5.956   6.163
  1268G11  C0GP86796  11.344   5.971   6.033
  1268G11  C0E286797  11.200   5.962   6.026
  1268G11  C0E186798  11.151   6.054   5.924
  1268G11  C0DU86799  11.052   6.155   5.948
  1268G11  C0DT86800  10.947   6.168   6.042
  1268G11  C0E486801  10.947   6.114   6.166
  1268G11  C0E586802  10.839   6.171   6.234
  1268G11  C0DS86803  10.859   6.274   6.041
  1268G11  C0DR86804  10.888   6.377   5.946
  1268G11  C0DD86805  10.817   6.495   5.933
  1268G11  C0DC86806  10.903   6.573   5.837
  1268G11  C0DP86807  11.025   6.508   5.804
  1268G11  C0DA86808  11.134   6.555   5.711
  1268G11  C0D986809  11.138   6.668   5.612
  1268G11  C0CR86810  11.238   6.667   5.508
  1268G11  C0C086811  11.341   6.575   5.504
  1268G11  C0BZ86812  11.434   6.557   5.399
  1268G11  C0C186813  11.517   6.444   5.390
  1268G11  C0C786814  11.582   6.422   5.269
  1268G11  C0C686815  11.652   6.305   5.249
  1268G11  C0C986816  11.717   6.277   5.134
  1268G11  C0B886817  11.806   6.167   5.125
  1268G11  C0B786818  11.886   6.143   5.009
  1268G11  C0B686819  11.991   6.040   4.983
  1268G11  C0B586820  12.080   6.016   5.090
  1268G11  H00Z86821  12.072   6.040   5.195
  1268G11  C0B486822  12.205   5.991   5.021
  1268G11  H01086823  12.301   6.008   5.069
  1268G11  C0B386824  12.191   5.983   4.878
  1268G11  C0AP86825  12.259   6.061   4.771
  1268G11  C0AQ86826  12.165   6.143   4.718
  1268G11  C0AR86827  12.198   6.259   4.645
  1268G11  C0AS86828  12.088   6.334   4.620
  1268G11  C0AT86829  11.978   6.333   4.705
  1268G11  C0BA86830  11.953   6.228   4.792
  1268G11  C0AU86831  11.906   6.446   4.721
  1268G11  C0BE86832  11.807   6.455   4.822
  1268G11  C0BI86833  11.738   6.575   4.843
  1268G11  C0BJ86834  11.764   6.685   4.763
  1268G11  C0BK86835  11.688   6.801   4.777
  1268G11  C0BW86836  11.589   6.806   4.874
  1268G11  C0BV86837  11.573   6.701   4.962
  1268G11  C0BU86838  11.495   6.723   5.077
  1268G11  C0BX86839  11.498   6.628   5.179
  1268G11  C0BT86840  11.424   6.839   5.087
  1268G11  C0CD86841  11.343   6.856   5.203
  1268G11  C0CB86842  11.342   6.756   5.303
  1268G11  C0CE86843  11.260   6.963   5.214
  1268G11  C0CK86844  11.257   7.062   5.107
  1268G11  C0BS86845  11.335   7.044   4.994
  1268G11  C0CJ86846  11.342   7.141   4.888
  1268G11  C0BP86847  11.441   7.132   4.793
  1268G11  C0CI86848  11.444   7.220   4.686
  1268G11  C0CH86849  11.566   7.221   4.612
  1268G11  H01286850  11.574   7.310   4.551
  1268G11  C0BN86851  11.665   7.121   4.615
  1268G11  C0CG86852  11.784   7.122   4.533
  1268G11  C0CF86853  11.804   7.231   4.437
  1268G11  H01386854  11.730   7.309   4.429
  1268G11  O00G86855  11.911   7.224   4.355
  1268G11  C0AA86856  12.004   7.129   4.372
  1268G11  C0A986857  12.121   7.136   4.292
  1268G11  H00U86858  12.125   7.209   4.213
  1268G11  C0A886859  12.223   7.049   4.318
  1268G11  H00V86860  12.305   7.066   4.250
  1268G11  C0A786861  12.203   6.934   4.400
  1268G11  C0A686862  12.075   6.915   4.469
  1268G11  C0A586863  12.032   6.799   4.529
  1268G11  C0A486864  12.105   6.679   4.517
  1268G11  C0A386865  12.239   6.636   4.496
  1268G11  C0A286866  12.348   6.722   4.476
  1268G11  C0A186867  12.480   6.675   4.454
  1268G11  C0A086868  12.557   6.545   4.450
  1268G11  C09Z86869  12.691   6.549   4.406
  1268G11  C09Y86870  12.778   6.436   4.429
  1268G11  H00Y86871  12.884   6.443   4.410
  1268G11  C09X86872  12.727   6.321   4.497
  1268G11  C09W86873  12.818   6.220   4.523
  1268G11  H00R86874  12.919   6.233   4.488
  1268G11  C0AX86875  12.783   6.110   4.594
  1268G11  H00S86876  12.852   6.034   4.628
  1268G11  C0AW86877  12.653   6.103   4.648
  1268G11  H00T86878  12.625   6.017   4.708
  1268G11  C0AN86879  12.559   6.201   4.614
  1268G11  C0AO86880  12.422   6.190   4.651
  1268G11  C0AM86881  12.596   6.318   4.538
  1268G11  C0B286882  12.747   6.663   4.338
  1268G11  O00D86883  12.866   6.660   4.303
  1268G11  C0B186884  12.665   6.778   4.317
  1268G11  H00W86885  12.693   6.857   4.249
  1268G11  C0AL86886  12.504   6.428   4.512
  1268G11  C0AK86887  12.365   6.404   4.545
  1268G11  C0B086888  12.540   6.775   4.377
  1268G11  C0AZ86889  12.450   6.888   4.364
  1268G11  H00X86890  12.485   6.979   4.318
  1268G11  C0AJ86891  12.255   6.498   4.533
  1268G11  C0AH86892  12.034   6.561   4.551
  1268G11  C0AE86893  11.907   6.797   4.603
  1268G11  C0AD86894  11.840   6.909   4.613
  1268G11  C0AY86895  12.320   6.849   4.416
  1268G11  C0AB86896  11.991   7.023   4.467
  1268G11  C0AC86897  11.875   7.023   4.544
  1268G11  C0BM86898  11.639   7.020   4.702
  1268G11  C0CM86899  11.339   7.312   4.665
  1268G11  C09M86900  11.264   7.348   4.777
  1268G11  C09886901  11.208   7.482   4.778
  1268G11  C08R86902  11.108   7.554   4.860
  1268G11  C08Q86903  11.083   7.689   4.837
  1268G11  C08P86904  10.970   7.780   4.839
  1268G11  C08Y86905  10.981   7.891   4.747
  1268G11  C09786906  11.066   7.886   4.632
  1268G11  C09686907  11.000   7.924   4.518
  1268G11  C09086908  10.889   7.998   4.564
  1268G11  C09586909  10.782   8.046   4.482
  1268G11  C09486910  10.671   8.122   4.530
  1268G11  C08J86911  10.630   8.149   4.663
  1268G11  C08I86912  10.487   8.163   4.654
  1268G11  C08H86913  10.427   8.141   4.787
  1268G11  C08G86914  10.526   8.057   4.859
  1268G11  C08F86915  10.539   7.976   4.981
  1268G11  C08E86916  10.444   7.993   5.078
  1268G11  C05986917  10.351   8.101   5.091
  1268G11  C05886918  10.254   8.108   5.197
  1268G11  C05786919  10.160   8.207   5.227
  1268G11  C05686920  10.164   8.315   5.132
  1268G11  C05586921  10.258   8.328   5.035
  1268G11  C05486922  10.200   8.408   4.937
  1268G11  C05386923  10.065   8.446   4.975
  1268G11  C05286924   9.952   8.497   4.896
  1268G11  C05186925   9.969   8.509   4.751
  1268G11  C05U86926  10.088   8.477   4.671
  1268G11  C05T86927  10.203   8.391   4.690
  1268G11  C06K86928  10.276   8.404   4.569
  1268G11  H00J86929  10.376   8.363   4.565
  1268G11  C06L86930  10.213   8.489   4.475
  1268G11  H00I86931  10.244   8.526   4.378
  1268G11  C05V86932  10.091   8.518   4.534
  1268G11  C06J86933   9.982   8.573   4.476
  1268G11  H00K86934   9.990   8.596   4.371
  1268G11  C05X86935   9.859   8.592   4.542
  1268G11  C06I86936   9.742   8.641   4.485
  1268G11  H00L86937   9.754   8.677   4.383
  1268G11  C04Z86938   9.618   8.648   4.541
  1268G11  C06H86939   9.499   8.680   4.465
  1268G11  H00H86940   9.506   8.695   4.358
  1268G11  C04Y86941   9.370   8.671   4.522
  1268G11  C06G86942   9.245   8.693   4.441
  1268G11  O00986943   9.249   8.705   4.319
  1268G11  O00886944   9.124   8.699   4.507
  1268G11  C04P86945   9.123   8.667   4.643
  1268G11  C04J86946   8.998   8.666   4.715
  1268G11  C04Q86947   8.868   8.691   4.661
  1268G11  H00E86948   8.867   8.717   4.556
  1268G11  C04M86949   8.754   8.686   4.740
  1268G11  C04R86950   8.624   8.714   4.693
  1268G11  H00F86951   8.617   8.749   4.592
  1268G11  C04S86952   8.519   8.714   4.774
  1268G11  H00G86953   8.425   8.751   4.736
  1268G11  O00786954   8.527   8.665   4.906
  1268G11  C03V86955   8.653   8.631   4.948
  1268G11  C03U86956   8.664   8.572   5.072
  1268G11  O00686957   8.544   8.552   5.132
  1268G11  C03F86958   8.543   8.463   5.231
  1268G11  C03E86959   8.667   8.430   5.300
  1268G11  C03D86960   8.789   8.463   5.247
  1268G11  C03C86961   8.902   8.431   5.312
  1268G11  C03B86962   8.890   8.368   5.437
  1268G11  C03A86963   9.003   8.333   5.505
  1268G11  C03986964   9.129   8.350   5.443
  1268G11  C03886965   9.216   8.288   5.544
  1268G11  C03786966   9.133   8.236   5.644
  1268G11  C03686967   9.184   8.175   5.755
  1268G11  C02R86968   9.114   8.114   5.851
  1268G11  C03586969   9.214   8.045   5.923
  1268G11  C03R86970   9.332   8.052   5.853
  1268G11  C03S86971   9.436   7.962   5.850
  1268G11  C04986972   9.537   7.981   5.767
  1268G11  C04886973   9.519   8.084   5.671
  1268G11  C03P86974   9.404   8.170   5.657
  1268G11  C04786975   9.634   8.102   5.593
  1268G11  C04686976   9.659   8.204   5.507
  1268G11  C04586977   9.579   8.308   5.453
  1268G11  C03T86978   9.442   8.325   5.462
  1268G11  C04486979   9.403   8.423   5.368
  1268G11  C04386980   9.522   8.484   5.320
  1268G11  C04286981   9.508   8.511   5.177
  1268G11  C04186982   9.363   8.496   5.165
  1268G11  C04086983   9.290   8.541   5.058
  1268G11  C03Z86984   9.149   8.547   5.041
  1268G11  C04H86985   9.122   8.592   4.912
  1268G11  C04G86986   9.239   8.604   4.845
  1268G11  C03N86987   9.031   8.522   5.122
  1268G11  C03Y86988   8.908   8.559   5.058
  1268G11  C03X86989   8.891   8.613   4.927
  1268G11  C04F86990   9.346   8.567   4.927
  1268G11  C04E86991   9.476   8.573   4.875
  1268G11  C04O86992   9.482   8.608   4.740
  1268G11  C04D86993   9.595   8.555   4.945
  1268G11  C04V86994   9.718   8.565   4.883
  1268G11  C04W86995   9.725   8.578   4.742
  1268G11  C04C86996   9.617   8.526   5.080
  1268G11  C04L86997   9.765   8.500   5.088
  1268G11  C04U86998   9.824   8.462   5.214
  1268G11  C05Q86999   9.954   8.402   5.209
  1268G11  C05P87000   9.960   8.301   5.310
  1268G11  C04T87001   9.840   8.293   5.375
  1268G11  C04B87002   9.757   8.392   5.317
  1268G11  C03M87003   9.287   8.446   5.281
  1268G11  C04A87004   9.629   8.402   5.367
  1268G11  C05H87005   9.793   8.195   5.462
  1268G11  C05G87006   9.843   8.079   5.528
  1268G11  C05F87007   9.969   8.033   5.510
  1268G11  C05E87008  10.026   7.911   5.555
  1268G11  C05L87009   9.993   7.806   5.646
  1268G11  C05K87010   9.868   7.808   5.713
  1268G11  C05J87011   9.759   7.902   5.698
  1268G11  C06687012   9.854   7.701   5.804
  1268G11  C06587013   9.961   7.606   5.825
  1268G11  C06487014  10.083   7.610   5.753
  1268G11  C06N87015   9.944   7.496   5.912
  1268G11  C06987016   9.819   7.483   5.975
  1268G11  C06P87017   9.795   7.360   6.049
  1268G11  C06R87018   9.669   7.330   6.094
  1268G11  C06B87019   9.571   7.426   6.078
  1268G11  C06S87020   9.445   7.391   6.126
  1268G11  C02G87021   9.346   7.491   6.120
  1268G11  C02F87022   9.217   7.461   6.161
  1268G11  C02787023   9.190   7.333   6.205
  1268G11  C02687024   9.062   7.306   6.246
  1268G11  C00E87025   9.032   7.179   6.291
  1268G11  C00D87026   8.906   7.146   6.319
  1268G11  C00C87027   8.873   7.020   6.355
  1268G11  C00B87028   8.959   6.920   6.361
  1268G11  C01587029   9.088   6.948   6.333
  1268G11  C07F87030   9.185   6.855   6.350
  1268G11  C07E87031   9.318   6.885   6.322
  1268G11  C06W87032   9.352   7.011   6.274
  1268G11  C06V87033   9.253   7.111   6.268
  1268G11  C06X87034   9.478   7.044   6.235
  1268G11  C07B87035   9.571   6.947   6.240
  1268G11  C07C87036   9.544   6.818   6.291
  1268G11  C0FU87037   9.645   6.719   6.300
  1268G11  C0F787038   9.618   6.593   6.347
  1268G11  C0F687039   9.717   6.499   6.353
  1268G11  C0F887040   9.685   6.374   6.400
  1268G11  C0F987041   9.787   6.284   6.419
  1268G11  C0FA87042   9.757   6.158   6.466
  1268G11  C0FZ87043   9.626   6.128   6.507
  1268G11  C0G087044   9.593   6.000   6.556
  1268G11  C0GD87045   9.691   5.905   6.577
  1268G11  C0FC87046   9.823   5.944   6.552
  1268G11  C0GH87047   9.930   5.862   6.605
  1268G11  C0EY87048  10.061   5.901   6.571
  1268G11  C0EX87049  10.165   5.823   6.632
  1268G11  C0EW87050  10.298   5.872   6.620
  1268G11  C0FR87051  10.407   5.804   6.686
  1268G11  H01D87052  10.512   5.829   6.687
  1268G11  C0FS87053  10.386   5.694   6.759
  1268G11  H01C87054  10.469   5.635   6.795
  1268G11  C0GJ87055  10.258   5.637   6.762
  1268G11  H01N87056  10.240   5.549   6.822
  1268G11  C0EV87057  10.320   5.979   6.537
  1268G11  C0FT87058  10.451   6.009   6.498
  1268G11  H01E87059  10.538   5.959   6.537
  1268G11  C0EU87060  10.216   6.054   6.475
  1268G11  C0ET87061  10.237   6.156   6.392
  1268G11  C0EI87062  10.144   6.250   6.356
  1268G11  C0F187063  10.012   6.218   6.391
  1268G11  C0F087064   9.982   6.101   6.456
  1268G11  C0EH87065  10.183   6.373   6.296
  1268G11  C0EG87066  10.317   6.401   6.255
  1268G11  C0EJ87067  10.083   6.462   6.282
  1268G11  C0F387068   9.951   6.436   6.321
  1268G11  C0EK87069  10.110   6.588   6.234
  1268G11  C0EL87070  10.239   6.622   6.181
  1268G11  C0EM87071  10.249   6.759   6.131
  1268G11  C0EN87072  10.151   6.852   6.150
  1268G11  C07I87073  10.178   6.977   6.091
  1268G11  C07487074  10.082   7.074   6.078
  1268G11  C07387075  10.122   7.186   6.007
  1268G11  C07287076  10.024   7.285   6.003
  1268G11  C07587077   9.957   7.044   6.124
  1268G11  C07687078   9.927   6.919   6.179
  1268G11  C07887079   9.802   6.881   6.220
  1268G11  C07G87080   9.863   7.141   6.119
  1268G11  C07087081   9.737   7.106   6.155
  1268G11  C07Z87082  10.303   6.977   6.033
  1268G11  C07787083  10.022   6.819   6.192
  1268G11  C0EO87084  10.004   6.687   6.235
  1268G11  C0F487085   9.872   6.657   6.273
  1268G11  C0EQ87086  10.371   6.187   6.363
  1268G11  C0FQ87087  10.146   5.708   6.705
  1268G11  C0GI87088  10.007   5.670   6.711
  1268G11  H01L87089   9.995   5.573   6.756
  1268G11  C0EZ87090  10.085   6.019   6.495
  1268G11  C0GG87091   9.900   5.741   6.662
  1268G11  C0GF87092   9.767   5.696   6.667
  1268G11  H01M87093   9.740   5.595   6.693
  1268G11  C0GE87094   9.660   5.775   6.630
  1268G11  H01K87095   9.554   5.758   6.646
  1268G11  O00J87096   9.464   5.965   6.582
  1268G11  C0GA87097   9.367   6.062   6.572
  1268G11  C0G987098   9.245   6.028   6.622
  1268G11  H01H87099   9.231   5.927   6.657
  1268G11  C0G887100   9.142   6.117   6.609
  1268G11  C0G787101   9.006   6.095   6.656
  1268G11  H01I87102   8.978   5.999   6.697
  1268G11  O00I87103   8.906   6.186   6.651
  1268G11  C0G687104   8.937   6.306   6.592
  1268G11  H01J87105   8.849   6.368   6.580
  1268G11  C02D87106   9.064   6.338   6.547
  1268G11  C02C87107   9.090   6.469   6.494
  1268G11  C01787108   8.988   6.566   6.471
  1268G11  C01687109   9.017   6.693   6.418
  1268G11  O00187110   8.851   6.541   6.483
  1268G11  C01887111   8.751   6.623   6.455
  1268G11  C00987112   8.781   6.756   6.415
  1268G11  C00887113   8.686   6.862   6.397
  1268G11  C00787114   8.543   6.873   6.390
  1268G11  C00687115   8.458   6.769   6.389
  1268G11  C00587116   8.322   6.779   6.342
  1268G11  C00487117   8.243   6.890   6.288
  1268G11  C00387118   8.280   7.030   6.266
  1268G11  C00287119   8.185   7.112   6.205
  1268G11  C00P87120   8.212   7.251   6.180
  1268G11  C00O87121   8.115   7.341   6.124
  1268G11  C00N87122   8.139   7.476   6.102
  1268G11  C01087123   8.047   7.557   6.045
  1268G11  C01187124   8.080   7.687   6.006
  1268G11  C01Q87125   7.985   7.760   5.934
  1268G11  C01U87126   7.861   7.711   5.903
  1268G11  C01287127   7.831   7.580   5.944
  1268G11  H00087128   7.737   7.541   5.907
  1268G11  C01V87129   7.767   7.799   5.841
  1268G11  H00787130   7.665   7.769   5.819
  1268G11  O00587131   7.796   7.927   5.803
  1268G11  C01W87132   7.922   7.966   5.822
  1268G11  C03187133   7.955   8.095   5.779
  1268G11  C03287134   8.084   8.146   5.805
  1268G11  H00A87135   8.107   8.246   5.773
  1268G11  C03387136   8.182   8.075   5.878
  1268G11  H00B87137   8.272   8.130   5.901
  1268G11  C01O87138   8.148   7.941   5.916
  1268G11  C01N87139   8.243   7.864   5.979
  1268G11  C01M87140   8.382   7.900   6.000
  1268G11  C01L87141   8.480   7.986   5.937
  1268G11  C01K87142   8.598   7.980   6.016
  1268G11  C01Y87143   8.726   8.022   5.960
  1268G11  C02I87144   8.738   8.103   5.849
  1268G11  C02N87145   8.863   8.135   5.802
  1268G11  C02M87146   8.873   8.211   5.685
  1268G11  C02L87147   8.759   8.247   5.612
  1268G11  C02K87148   8.633   8.187   5.650
  1268G11  C02U87149   8.524   8.196   5.555
  1268G11  C02V87150   8.534   8.288   5.450
  1268G11  C03H87151   8.415   8.322   5.375
  1268G11  H00C87152   8.321   8.276   5.401
  1268G11  C02W87153   8.421   8.111   5.565
  1268G11  C02X87154   8.413   8.037   5.683
  1268G11  C02Y87155   8.316   7.945   5.654
  1268G11  H00887156   8.282   7.858   5.709
  1268G11  C02Z87157   8.265   7.962   5.515
  1268G11  O00487158   8.180   7.898   5.445
  1268G11  O00387159   8.341   8.065   5.463
  1268G11  C02J87160   8.614   8.112   5.771
  1268G11  C01Z87161   8.831   7.951   6.014
  1268G11  C02087162   8.807   7.837   6.096
  1268G11  C01I87163   8.681   7.795   6.139
  1268G11  C01H87164   8.650   7.668   6.184
  1268G11  C00K87165   8.518   7.621   6.181
  1268G11  C01S87166   8.416   7.698   6.137
  1268G11  C01487167   8.296   7.652   6.103
  1268G11  C00J87168   8.490   7.484   6.205
  1268G11  C00I87169   8.592   7.403   6.242
  1268G11  C00H87170   8.728   7.452   6.235
  1268G11  C00G87171   8.831   7.364   6.262
  1268G11  C00S87172   8.565   7.272   6.272
  1268G11  C00T87173   8.673   7.200   6.306
  1268G11  C00U87174   8.639   7.071   6.353
  1268G11  C00R87175   8.435   7.219   6.266
  1268G11  C00L87176   8.359   7.437   6.190
  1268G11  C02887177   8.753   7.584   6.207
  1268G11  C02387178   8.883   7.619   6.176
  1268G11  C02487179   8.988   7.534   6.201
  1268G11  C02187180   8.910   7.745   6.117
  1268G11  C02287181   9.043   7.779   6.080
  1268G11  C02H87182   9.146   7.684   6.103
  1268G11  C03087183   9.274   7.710   6.054
  1268G11  C03487184   9.301   7.832   6.001
  1268G11  C02P87185   9.062   7.897   6.018
  1268G11  C02B87186   8.958   7.977   5.969
  1268G11  C01J87187   8.579   7.887   6.122
  1268G11  C01X87188   8.492   8.044   5.803
  1268G11  C01T87189   8.448   7.832   6.105
  1268G11  H00987190   7.886   8.156   5.721
  1268G11  C01P87191   8.019   7.885   5.892
  1268G11  C01R87192   8.207   7.732   6.028
  1268G11  C00Z87193   7.921   7.499   6.011
  1268G11  O00087194   7.897   7.368   6.034
  1268G11  C00M87195   8.261   7.520   6.135
  1268G11  C00Y87196   7.993   7.282   6.084
  1268G11  C01387197   7.964   7.145   6.095
  1268G11  H00187198   7.868   7.104   6.067
  1268G11  C00Q87199   8.335   7.303   6.213
  1268G11  C00187200   8.058   7.065   6.163
  1268G11  C00087201   8.029   6.931   6.190
  1268G11  H00687202   7.940   6.881   6.153
  1268G11  C00W87203   8.404   7.081   6.288
  1268G11  C01G87204   8.113   6.851   6.257
  1268G11  H00587205   8.067   6.757   6.285
  1268G11  C01C87206   8.274   6.643   6.358
  1268G11  H00287207   8.179   6.592   6.353
  1268G11  C01B87208   8.383   6.564   6.417
  1268G11  C01D87209   8.377   6.427   6.466
  1268G11  H00387210   8.283   6.374   6.457
  1268G11  C01E87211   8.489   6.382   6.517
  1268G11  H00487212   8.493   6.285   6.564
  1268G11  O00287213   8.609   6.448   6.528
  1268G11  C01A87214   8.497   6.638   6.429
  1268G11  C00V87215   8.518   7.007   6.341
  1268G11  C01987216   8.620   6.574   6.472
  1268G11  C02E87217   9.218   6.505   6.455
  1268G11  C0FX87218   9.323   6.411   6.464
  1268G11  C0FW87219   9.454   6.441   6.424
  1268G11  C0GB87220   9.293   6.284   6.517
  1268G11  C0G387221   9.248   6.632   6.405
  1268G11  C07H87222   9.380   6.659   6.366
  1268G11  C0GC87223   9.167   6.244   6.557
  1268G11  C0G287224   9.393   6.192   6.525
  1268G11  C0G187225   9.525   6.221   6.489
  1268G11  C0FB87226   9.852   6.066   6.486
  1268G11  C0F287227   9.914   6.314   6.367
  1268G11  C0FY87228   9.555   6.346   6.439
  1268G11  C0F587229   9.848   6.533   6.318
  1268G11  C0FV87230   9.485   6.566   6.377
  1268G11  C07987231   9.768   6.754   6.266
  1268G11  C07A87232   9.703   6.977   6.203
  1268G11  C06Y87233   9.511   7.169   6.189
  1268G11  C07D87234   9.412   6.791   6.333
  1268G11  C01F87235   9.150   6.729   6.392
  1268G11  C00A87236   8.919   6.787   6.396
  1268G11  C00X87237   8.740   6.985   6.376
  1268G11  C00F87238   8.803   7.238   6.300
  1268G11  C02987239   9.130   7.080   6.306
  1268G11  C02587240   8.960   7.405   6.241
  1268G11  C06U87241   9.289   7.237   6.217
  1268G11  C02A87242   9.117   7.559   6.157
  1268G11  C05Y87243   9.374   7.615   6.063
  1268G11  C05Z87244   9.499   7.650   6.011
  1268G11  C06087245   9.523   7.761   5.935
  1268G11  C06287246   9.636   7.777   5.863
  1268G11  C06T87247   9.415   7.267   6.178
  1268G11  C06A87248   9.596   7.546   6.012
  1268G11  C06Z87249   9.641   7.205   6.153
  1268G11  C06Q87250   9.896   7.262   6.059
  1268G11  C06887251   9.720   7.573   5.959
  1268G11  C06787252   9.737   7.691   5.881
  1268G11  C06387253  10.093   7.705   5.655
  1268G11  C06C87254  10.209   7.699   5.573
  1268G11  C06D87255  10.231   7.794   5.474
  1268G11  C06E87256  10.334   7.801   5.378
  1268G11  C07Q87257  10.429   7.704   5.397
  1268G11  C07P87258  10.417   7.608   5.499
  1268G11  C07T87259  10.521   7.515   5.513
  1268G11  C07U87260  10.512   7.422   5.614
  1268G11  C07V87261  10.612   7.324   5.622
  1268G11  C08487262  10.721   7.326   5.536
  1268G11  C08C87263  10.720   7.419   5.430
  1268G11  C08B87264  10.816   7.408   5.336
  1268G11  C08A87265  10.810   7.496   5.228
  1268G11  C08987266  10.723   7.603   5.216
  1268G11  C08887267  10.736   7.691   5.109
  1268G11  C08787268  10.635   7.792   5.093
  1268G11  C08687269  10.537   7.796   5.192
  1268G11  C08X87270  10.836   7.678   5.011
  1268G11  C08T87271  10.917   7.557   5.015
  1268G11  C08D87272  10.629   7.611   5.316
  1268G11  C08U87273  10.891   7.472   5.116
  1268G11  C08V87274  10.979   7.363   5.116
  1268G11  C0CY87275  10.993   7.280   5.226
  1268G11  C0CX87276  11.084   7.180   5.222
  1268G11  C0CW87277  11.089   7.087   5.324
  1268G11  C0CV87278  10.998   7.103   5.435
  1268G11  C0D487279  10.908   7.207   5.437
  1268G11  C0CU87280  10.990   7.003   5.529
  1268G11  C0CT87281  11.068   6.886   5.522
  1268G11  C0CS87282  11.159   6.877   5.417
  1268G11  C0D687283  10.886   7.014   5.618
  1268G11  C0EC87284  10.800   7.122   5.628
  1268G11  C07X87285  10.694   7.118   5.719
  1268G11  C0DL87286  10.889   6.924   5.726
  1268G11  C0DK87287  10.776   6.915   5.804
  1268G11  C0DN87288  10.770   6.787   5.849
  1268G11  C0D887289  10.953   6.796   5.716
  1268G11  C08W87290  11.064   7.367   5.009
  1268G11  C0CQ87291  11.166   7.261   4.998
  1268G11  C09387292  10.911   7.303   5.337
  1268G11  C09287293  10.815   7.222   5.537
  1268G11  C08587294  10.626   7.521   5.423
  1268G11  C07S87295  10.533   7.703   5.302
  1268G11  C06F87296  10.346   7.900   5.278
  1268G11  C07O87297  10.309   7.607   5.586
  1268G11  C07N87298  10.296   7.513   5.682
  1268G11  C05D87299  10.139   7.895   5.469
  1268G11  C05C87300  10.155   7.997   5.380
  1268G11  C05N87301  10.055   8.085   5.405
  1268G11  C05M87302   9.753   8.015   5.606
  1268G11  C05I87303   9.642   7.887   5.773
  1268G11  C06187304   9.422   7.856   5.936
  1268G11  C02Q87305   9.192   7.921   5.988
  1268G11  C02O87306   8.972   8.081   5.875
  1268G11  C03Q87307   9.314   8.135   5.756
  1268G11  C03O87308   9.360   8.250   5.546
  1268G11  C03L87309   9.152   8.422   5.323
  1268G11  C02S87310   8.997   8.259   5.622
  1268G11  C02T87311   8.771   8.325   5.492
  1268G11  C03K87312   9.031   8.462   5.253
  1268G11  C03I87313   8.657   8.350   5.414
  1268G11  C03G87314   8.420   8.415   5.272
  1268G11  H00D87315   8.333   8.461   5.229
  1268G11  C03J87316   8.791   8.534   5.128
  1268G11  C03W87317   8.766   8.644   4.869
  1268G11  C04I87318   9.002   8.626   4.847
  1268G11  C04K87319   9.238   8.643   4.715
  1268G11  C04N87320   9.363   8.643   4.661
  1268G11  C04X87321   9.610   8.614   4.676
  1268G11  C05087322   9.854   8.557   4.677
  1268G11  C05W87323   9.826   8.522   4.955
  1268G11  C05S87324  10.251   8.347   4.819
  1268G11  C05R87325  10.053   8.403   5.110
  1268G11  C05O87326  10.052   8.196   5.319
  1268G11  C05B87327  10.255   7.997   5.275
  1268G11  C05A87328  10.335   8.212   5.001
  1268G11  C07R87329  10.445   7.899   5.181
  1268G11  C08N87330  10.644   7.883   4.990
  1268G11  C08M87331  10.752   7.879   4.905
  1268G11  C08L87332  10.756   7.964   4.791
  1268G11  C09187333  10.340   8.227   4.860
  1268G11  C09K87334  10.445   8.131   4.515
  1268G11  H00M87335  10.344   8.110   4.483
  1268G11  C08K87336  10.640   8.051   4.770
  1268G11  C09J87337  10.565   8.118   4.436
  1268G11  C09I87338  10.626   8.070   4.316
  1268G11  C09L87339  10.578   8.075   4.180
  1268G11  H00N87340  10.479   8.109   4.153
  1268G11  C09Q87341  10.673   8.048   4.085
  1268G11  H00O87342  10.652   8.063   3.980
  1268G11  O00B87343  10.803   7.994   4.114
  1268G11  C09G87344  10.847   7.980   4.244
  1268G11  C09F87345  10.971   7.910   4.256
  1268G11  O00A87346  11.003   7.841   4.139
  1268G11  C09P87347  11.125   7.782   4.143
  1268G11  H00P87348  11.193   7.800   4.061
  1268G11  C09O87349  11.168   7.705   4.253
  1268G11  C09D87350  11.132   7.766   4.380
  1268G11  C09C87351  11.180   7.720   4.511
  1268G11  C09N87352  11.245   7.595   4.556
  1268G11  C09T87353  11.249   7.479   4.477
  1268G11  C09S87354  11.268   7.484   4.331
  1268G11  C0CP87355  11.338   7.366   4.298
  1268G11  C0CN87356  11.347   7.282   4.412
  1268G11  C0CO87357  11.402   7.153   4.389
  1268G11  H01487358  11.413   7.071   4.459
  1268G11  C0CZ87359  11.444   7.126   4.255
  1268G11  H01587360  11.487   7.028   4.242
  1268G11  C0D087361  11.426   7.213   4.146
  1268G11  C0G587362  11.453   7.181   4.010
  1268G11  H01F87363  11.499   7.088   3.980
  1268G11  C0G487364  11.429   7.274   3.908
  1268G11  H01G87365  11.458   7.253   3.806
  1268G11  O00H87366  11.367   7.397   3.924
  1268G11  C0D287367  11.330   7.424   4.054
  1268G11  C09V87368  11.271   7.546   4.097
  1268G11  H00Q87369  11.241   7.609   4.015
  1268G11  C0D187370  11.368   7.341   4.160
  1268G11  C09R87371  11.235   7.580   4.234
  1268G11  C09H87372  10.761   8.029   4.344
  1268G11  C09E87373  11.038   7.881   4.380
  1268G11  C09B87374  11.153   7.783   4.628
  1268G11  C08Z87375  10.868   7.955   4.702
  1268G11  C08O87376  10.851   7.778   4.920
  1268G11  C09A87377  11.188   7.712   4.742
  1268G11  C08S87378  11.025   7.489   4.943
  1268G11  C09987379  11.254   7.590   4.700
  1268G11  C09U87380  11.306   7.358   4.530
  1268G11  C0BO87381  11.537   7.030   4.795
  1268G11  C0CL87382  11.256   7.252   4.890
  1268G11  C0D387383  11.166   7.166   5.111
  1268G11  C0D587384  11.171   6.976   5.320
  1268G11  C0BR87385  11.421   6.933   4.984
  1268G11  C0BQ87386  11.518   6.925   4.888
  1268G11  C0BL87387  11.728   6.909   4.697
  1268G11  C0AF87388  11.867   6.680   4.672
  1268G11  C0BH87389  11.648   6.584   4.949
  1268G11  C0BG87390  11.644   6.489   5.046
  1268G11  C0BD87391  11.795   6.353   4.914
  1268G11  C0AG87392  11.931   6.562   4.646
  1268G11  C0AI87393  12.120   6.456   4.554
  1268G11  C0AV87394  12.328   6.287   4.609
  1268G11  C0BB87395  12.040   6.117   4.776
  1268G11  O00C87396  12.390   6.093   4.745
  1268G11  C0BC87397  12.049   6.007   4.863
  1268G11  C0B987398  11.871   6.234   4.903
  1268G11  O00E87399  11.808   6.074   5.227
  1268G11  C0CA87400  11.756   6.100   5.347
  1268G11  O00F87401  11.788   6.023   5.442
  1268G11  C0BF87402  11.721   6.373   5.033
  1268G11  C0C587403  11.675   6.216   5.352
  1268G11  C0C487404  11.612   6.240   5.473
  1268G11  H01187405  11.615   6.162   5.547
  1268G11  C0C887406  11.575   6.511   5.166
  1268G11  C0C287407  11.532   6.355   5.495
  1268G11  C0C387408  11.448   6.391   5.604
  1268G11  C0DY87409  11.429   6.317   5.718
  1268G11  H01687410  11.488   6.238   5.761
  1268G11  C0DX87411  11.306   6.361   5.784
  1268G11  C0DW87412  11.226   6.259   5.836
  1268G11  C0BY87413  11.429   6.646   5.294
  1268G11  C0DB87414  11.351   6.487   5.609
  1268G11  C0CC87415  11.246   6.770   5.411
  1268G11  C0D787416  11.059   6.784   5.618
  1268G11  C0DZ87417  11.255   6.478   5.713
  1268G11  C0DM87418  10.887   6.710   5.811
  1268G11  C0DQ87419  11.007   6.381   5.875
  1268G11  C0DV87420  11.091   6.271   5.877
  1268G11  C0E087421  11.269   6.119   5.860
  1268G11  C0FO87422  11.160   5.970   6.166
  1268G11  C0E387423  11.379   6.085   5.947
  1268G11  H01787424  11.472   6.139   5.952
  1268G11  C0GV87425  11.277   5.950   6.244
  1268G11  C0ES87426  11.044   6.026   6.226
  1268G11  C0GQ87427  11.166   5.996   6.579
  1268G11  C0FJ87428  10.813   6.084   6.659
  1268G11  C0ED87429  10.817   6.142   6.376
  1268G11  C0ER87430  10.475   6.117   6.415
  1268G11  C0EP87431  10.411   6.301   6.295
  1268G11  C0E687432  10.770   6.270   6.153
  1268G11  C0DE87433  10.683   6.519   5.982
  1268G11  C0EA87434  10.343   6.523   6.186
  1268G11  C0DF87435  10.597   6.613   5.926
  1268G11  C08087436  10.350   6.840   6.059
  1268G11  C0DO87437  10.644   6.748   5.900
  1268G11  C0DJ87438  10.672   7.009   5.799
  1268G11  C07K87439  10.343   7.087   5.950
  1268G11  C07W87440  10.596   7.220   5.718
  1268G11  C08387441  10.397   7.414   5.696
  1268G11  C07J87442  10.249   7.191   5.945
  1268G11  C06O87443  10.048   7.402   5.927
  1268G11  C06M87444  10.181   7.507   5.762
  1278G11  C07187445   7.215   1.533   5.206
  1278G11  C07L87446   7.163   1.521   5.337
  1278G11  C07M87447   7.249   1.537   5.450
  1278G11  C07Y87448   7.200   1.513   5.579
  1278G11  C08187449   7.063   1.492   5.602
  1278G11  C08287450   7.019   1.460   5.736
  1278G11  C0DI87451   6.883   1.439   5.793
  1278G11  C0DH87452   6.752   1.421   5.734
  1278G11  C0DG87453   6.656   1.416   5.836
  1278G11  C0E987454   6.543   1.329   5.846
  1278G11  C0E887455   6.530   1.310   5.991
  1278G11  C0E787456   6.411   1.295   6.080
  1278G11  C0EB87457   6.281   1.283   6.018
  1278G11  C0EF87458   6.146   1.301   6.081
  1278G11  C0EE87459   6.104   1.354   6.204
  1278G11  C0FD87460   5.974   1.422   6.214
  1278G11  C0FE87461   5.906   1.484   6.106
  1278G11  H01B87462   5.955   1.470   6.010
  1278G11  C0FF87463   5.783   1.551   6.115
  1278G11  H01A87464   5.727   1.584   6.029
  1278G11  C0FG87465   5.723   1.558   6.243
  1278G11  H01887466   5.629   1.609   6.255
  1278G11  C0FH87467   5.788   1.500   6.358
  1278G11  C0FI87468   5.731   1.507   6.485
  1278G11  H01987469   5.640   1.561   6.502
  1278G11  O00K87470   5.790   1.451   6.596
  1278G11  C0FL87471   5.914   1.399   6.576
  1278G11  C0FK87472   5.975   1.380   6.451
  1278G11  C0FM87473   6.105   1.326   6.447
  1278G11  C0FN87474   6.152   1.257   6.558
  1278G11  C0FP87475   6.089   1.276   6.683
  1278G11  C0GO87476   6.141   1.227   6.800
  1278G11  C0GN87477   6.099   1.256   6.929
  1278G11  C0GR87478   5.981   1.340   6.935
  1278G11  C0GS87479   5.932   1.366   7.054
  1278G11  H01Q87480   5.850   1.433   7.075
  1278G11  C0GT87481   5.991   1.321   7.178
  1278G11  H01O87482   5.948   1.353   7.272
  1278G11  C0GU87483   6.096   1.238   7.164
  1278G11  H01P87484   6.130   1.184   7.252
  1278G11  O00L87485   5.917   1.383   6.817
  1278G11  C0GM87486   6.161   1.209   7.045
  1278G11  C0GL87487   6.291   1.144   7.024
  1278G11  H01R87488   6.347   1.101   7.106
  1278G11  C0GK87489   6.335   1.112   6.895
  1278G11  C0GP87490   6.452   1.053   6.837
  1278G11  C0E287491   6.419   1.022   6.696
  1278G11  C0E187492   6.543   1.032   6.621
  1278G11  C0DU87493   6.567   1.110   6.509
  1278G11  C0DT87494   6.476   1.159   6.418
  1278G11  C0E487495   6.344   1.197   6.436
  1278G11  C0E587496   6.303   1.271   6.327
  1278G11  C0DS87497   6.520   1.220   6.301
  1278G11  C0DR87498   6.655   1.255   6.298
  1278G11  C0DD87499   6.719   1.322   6.193
  1278G11  C0DC87500   6.860   1.335   6.244
  1278G11  C0DP87501   6.880   1.286   6.379
  1278G11  C0DA87502   7.000   1.285   6.464
  1278G11  C0D987503   7.144   1.327   6.433
  1278G11  C0CR87504   7.248   1.311   6.531
  1278G11  C0C087505   7.229   1.264   6.660
  1278G11  C0BZ87506   7.324   1.258   6.767
  1278G11  C0C187507   7.281   1.212   6.892
  1278G11  C0C787508   7.373   1.204   7.000
  1278G11  C0C687509   7.335   1.159   7.125
  1278G11  C0C987510   7.434   1.145   7.220
  1278G11  C0B887511   7.390   1.100   7.346
  1278G11  C0B787512   7.479   1.097   7.452
  1278G11  C0B687513   7.463   1.051   7.588
  1278G11  C0B587514   7.377   0.933   7.607
  1278G11  H00Z87515   7.295   0.906   7.542
  1278G11  C0B487516   7.442   0.838   7.698
  1278G11  H01087517   7.423   0.736   7.726
  1278G11  C0B387518   7.565   0.908   7.744
  1278G11  C0AP87519   7.704   0.872   7.766
  1278G11  C0AQ87520   7.776   0.981   7.711
  1278G11  C0AR87521   7.911   0.970   7.663
  1278G11  C0AS87522   7.939   1.061   7.565
  1278G11  C0AT87523   7.848   1.126   7.488
  1278G11  C0BA87524   7.714   1.119   7.519
  1278G11  C0AU87525   7.883   1.168   7.360
  1278G11  C0BE87526   7.783   1.191   7.268
  1278G11  C0BI87527   7.826   1.229   7.138
  1278G11  C0BJ87528   7.963   1.239   7.105
  1278G11  C0BK87529   8.004   1.282   6.981
  1278G11  C0BW87530   7.911   1.318   6.885
  1278G11  C0BV87531   7.773   1.290   6.914
  1278G11  C0BU87532   7.675   1.317   6.819
  1278G11  C0BX87533   7.543   1.290   6.843
  1278G11  C0BT87534   7.714   1.362   6.695
  1278G11  C0CD87535   7.615   1.384   6.597
  1278G11  C0CB87536   7.483   1.348   6.620
  1278G11  C0CE87537   7.652   1.435   6.469
  1278G11  C0CK87538   7.789   1.466   6.449
  1278G11  C0BS87539   7.886   1.450   6.545
  1278G11  C0CJ87540   8.020   1.490   6.525
  1278G11  C0BP87541   8.117   1.461   6.623
  1278G11  C0CI87542   8.249   1.499   6.611
  1278G11  C0CH87543   8.343   1.429   6.693
  1278G11  H01287544   8.448   1.441   6.669
  1278G11  C0BN87545   8.309   1.360   6.810
  1278G11  C0CG87546   8.404   1.316   6.902
  1278G11  C0CF87547   8.546   1.347   6.886
  1278G11  H01387548   8.573   1.420   6.812
  1278G11  O00G87549   8.640   1.304   6.977
  1278G11  C0AA87550   8.599   1.229   7.088
  1278G11  C0A987551   8.696   1.159   7.157
  1278G11  H00U87552   8.797   1.174   7.122
  1278G11  C0A887553   8.662   1.069   7.257
  1278G11  H00V87554   8.739   1.005   7.297
  1278G11  C0A787555   8.525   1.051   7.300
  1278G11  C0A687556   8.423   1.130   7.222
  1278G11  C0A587557   8.292   1.138   7.254
  1278G11  C0A487558   8.239   1.075   7.373
  1278G11  C0A387559   8.271   0.979   7.475
  1278G11  C0A287560   8.387   0.908   7.477
  1278G11  C0A187561   8.405   0.785   7.545
  1278G11  C0A087562   8.323   0.690   7.624
  1278G11  C09Z87563   8.388   0.569   7.657
  1278G11  C09Y87564   8.317   0.470   7.725
  1278G11  H00Y87565   8.367   0.379   7.756
  1278G11  C09X87566   8.180   0.495   7.763
  1278G11  C09W87567   8.111   0.390   7.816
  1278G11  H00R87568   8.157   0.294   7.834
  1278G11  C0AX87569   7.983   0.404   7.865
  1278G11  H00S87570   7.932   0.326   7.922
  1278G11  C0AW87571   7.923   0.523   7.839
  1278G11  H00T87572   7.820   0.545   7.865
  1278G11  C0AN87573   7.983   0.636   7.782
  1278G11  C0AO87574   7.915   0.756   7.763
  1278G11  C0AM87575   8.120   0.619   7.742
  1278G11  C0B287576   8.521   0.530   7.624
  1278G11  O00D87577   8.569   0.415   7.635
  1278G11  C0B187578   8.605   0.634   7.571
  1278G11  H00W87579   8.710   0.614   7.556
  1278G11  C0AL87580   8.184   0.720   7.664
  1278G11  C0AK87581   8.112   0.842   7.640
  1278G11  C0B087582   8.541   0.756   7.526
  1278G11  C0AZ87583   8.606   0.857   7.453
  1278G11  H00X87584   8.711   0.852   7.428
  1278G11  C0AJ87585   8.158   0.947   7.553
  1278G11  C0AH87586   8.111   1.122   7.409
  1278G11  C0AE87587   8.195   1.203   7.169
  1278G11  C0AD87588   8.231   1.244   7.047
  1278G11  C0AY87589   8.502   0.952   7.403
  1278G11  C0AB87590   8.461   1.201   7.108
  1278G11  C0AC87591   8.368   1.250   7.015
  1278G11  C0BM87592   8.175   1.350   6.830
  1278G11  C0CM87593   8.285   1.592   6.508
  1278G11  C09M87594   8.195   1.613   6.395
  1278G11  C09887595   8.246   1.698   6.285
  1278G11  C08R87596   8.201   1.724   6.150
  1278G11  C08Q87597   8.272   1.817   6.073
  1278G11  C08P87598   8.310   1.827   5.933
  1278G11  C08Y87599   8.435   1.877   5.904
  1278G11  C09787600   8.526   1.889   6.005
  1278G11  C09687601   8.649   1.855   5.962
  1278G11  C09087602   8.644   1.869   5.821
  1278G11  C09587603   8.743   1.823   5.728
  1278G11  C09487604   8.733   1.838   5.584
  1278G11  C08J87605   8.623   1.856   5.501
  1278G11  C08I87606   8.645   1.782   5.380
  1278G11  C08H87607   8.518   1.745   5.320
  1278G11  C08G87608   8.421   1.756   5.428
  1278G11  C08F87609   8.272   1.761   5.435
  1278G11  C08E87610   8.188   1.763   5.323
  1278G11  C05987611   8.228   1.798   5.189
  1278G11  C05887612   8.132   1.811   5.084
  1278G11  C05787613   8.159   1.831   4.948
  1278G11  C05687614   8.294   1.851   4.914
  1278G11  C05587615   8.391   1.871   5.011
  1278G11  C05487616   8.511   1.822   4.954
  1278G11  C05387617   8.490   1.777   4.817
  1278G11  C05287618   8.578   1.696   4.732
  1278G11  C05187619   8.703   1.642   4.779
  1278G11  C05U87620   8.763   1.664   4.914
  1278G11  C05T87621   8.715   1.714   5.042
  1278G11  C06K87622   8.837   1.738   5.126
  1278G11  H00J87623   8.839   1.799   5.215
  1278G11  C06L87624   8.941   1.656   5.072
  1278G11  H00I87625   9.036   1.625   5.114
  1278G11  C05V87626   8.897   1.617   4.942
  1278G11  C06J87627   8.969   1.543   4.850
  1278G11  H00K87628   9.059   1.498   4.891
  1278G11  C05X87629   8.922   1.522   4.718
  1278G11  C06I87630   8.994   1.455   4.621
  1278G11  H00L87631   9.091   1.417   4.649
  1278G11  C04Z87632   8.953   1.435   4.489
  1278G11  C06H87633   9.031   1.363   4.403
  1278G11  H00H87634   9.124   1.319   4.439
  1278G11  C04Y87635   8.995   1.355   4.267
  1278G11  C06G87636   9.081   1.288   4.167
  1278G11  O00987637   9.197   1.248   4.181
  1278G11  O00887638   9.024   1.262   4.042
  1278G11  C04P87639   8.891   1.283   4.019
  1278G11  C04J87640   8.820   1.212   3.913
  1278G11  C04Q87641   8.884   1.128   3.828
  1278G11  H00E87642   8.990   1.118   3.847
  1278G11  C04M87643   8.812   1.054   3.733
  1278G11  C04R87644   8.870   0.983   3.627
  1278G11  H00F87645   8.978   0.984   3.621
  1278G11  C04S87646   8.790   0.907   3.549
  1278G11  H00G87647   8.841   0.843   3.478
  1278G11  O00787648   8.654   0.890   3.566
  1278G11  C03V87649   8.594   0.971   3.659
  1278G11  C03U87650   8.458   0.971   3.682
  1278G11  O00687651   8.391   0.880   3.603
  1278G11  C03F87652   8.259   0.859   3.632
  1278G11  C03E87653   8.191   0.942   3.720
  1278G11  C03D87654   8.256   1.049   3.782
  1278G11  C03C87655   8.186   1.143   3.860
  1278G11  C03B87656   8.045   1.123   3.860
  1278G11  C03A87657   7.967   1.219   3.930
  1278G11  C03987658   8.028   1.302   4.030
  1278G11  C03887659   7.909   1.350   4.105
  1278G11  C03787660   7.800   1.297   4.042
  1278G11  C03687661   7.674   1.337   4.073
  1278G11  C02R87662   7.556   1.283   4.029
  1278G11  C03587663   7.460   1.347   4.114
  1278G11  C03R87664   7.515   1.436   4.205
  1278G11  C03S87665   7.469   1.452   4.331
  1278G11  C04987666   7.561   1.492   4.430
  1278G11  C04887667   7.695   1.506   4.393
  1278G11  C03P87668   7.757   1.455   4.273
  1278G11  C04787669   7.776   1.569   4.488
  1278G11  C04687670   7.908   1.604   4.482
  1278G11  C04587671   8.003   1.582   4.387
  1278G11  C03T87672   8.001   1.500   4.275
  1278G11  C04487673   8.133   1.500   4.218
  1278G11  C04387674   8.202   1.596   4.287
  1278G11  C04287675   8.344   1.572   4.284
  1278G11  C04187676   8.345   1.466   4.173
  1278G11  C04087677   8.469   1.434   4.105
  1278G11  C03Z87678   8.479   1.340   3.998
  1278G11  C04H87679   8.614   1.323   3.981
  1278G11  C04G87680   8.687   1.392   4.078
  1278G11  C03N87681   8.394   1.244   3.921
  1278G11  C03Y87682   8.466   1.156   3.831
  1278G11  C03X87683   8.606   1.150   3.822
  1278G11  C04F87684   8.602   1.451   4.162
  1278G11  C04E87685   8.649   1.498   4.285
  1278G11  C04O87686   8.781   1.461   4.318
  1278G11  C04D87687   8.580   1.578   4.379
  1278G11  C04V87688   8.634   1.603   4.509
  1278G11  C04W87689   8.759   1.559   4.551
  1278G11  C04C87690   8.446   1.629   4.374
  1278G11  C04L87691   8.421   1.696   4.508
  1278G11  C04U87692   8.292   1.730   4.566
  1278G11  C05Q87693   8.270   1.788   4.690
  1278G11  C05P87694   8.135   1.788   4.718
  1278G11  C04T87695   8.067   1.734   4.610
  1278G11  C04B87696   8.165   1.703   4.517
  1278G11  C03M87697   8.214   1.430   4.126
  1278G11  C04A87698   8.130   1.634   4.400
  1278G11  C05H87699   7.937   1.677   4.595
  1278G11  C05G87700   7.828   1.666   4.687
  1278G11  C05F87701   7.815   1.735   4.811
  1278G11  C05E87702   7.725   1.689   4.909
  1278G11  C05L87703   7.596   1.625   4.910
  1278G11  C05K87704   7.528   1.573   4.798
  1278G11  C05J87705   7.581   1.561   4.664
  1278G11  C06687706   7.391   1.540   4.821
  1278G11  C06587707   7.328   1.543   4.947
  1278G11  C06487708   7.404   1.575   5.055
  1278G11  C06N87709   7.197   1.504   4.970
  1278G11  C06987710   7.121   1.459   4.860
  1278G11  C06P87711   6.988   1.416   4.882
  1278G11  C06R87712   6.910   1.362   4.783
  1278G11  C06B87713   6.967   1.353   4.656
  1278G11  C06S87714   6.902   1.278   4.558
  1278G11  C02G87715   6.964   1.261   4.437
  1278G11  C02F87716   6.901   1.177   4.341
  1278G11  C02787717   6.780   1.112   4.372
  1278G11  C02687718   6.726   1.023   4.283
  1278G11  C00E87719   6.603   0.963   4.306
  1278G11  C00D87720   6.555   0.872   4.219
  1278G11  C00C87721   6.439   0.808   4.248
  1278G11  C00B87722   6.375   0.819   4.366
  1278G11  C01587723   6.422   0.914   4.457
  1278G11  C07F87724   6.362   0.927   4.582
  1278G11  C07E87725   6.416   1.016   4.668
  1278G11  C06W87726   6.533   1.086   4.641
  1278G11  C06V87727   6.594   1.069   4.520
  1278G11  C06X87728   6.597   1.161   4.734
  1278G11  C07B87729   6.539   1.171   4.860
  1278G11  C07C87730   6.419   1.104   4.894
  1278G11  C0FU87731   6.373   1.111   5.023
  1278G11  C0F787732   6.261   1.030   5.054
  1278G11  C0F687733   6.216   1.025   5.184
  1278G11  C0F887734   6.105   0.946   5.222
  1278G11  C0F987735   6.059   0.944   5.350
  1278G11  C0FA87736   5.945   0.876   5.382
  1278G11  C0FZ87737   5.887   0.794   5.286
  1278G11  C0G087738   5.768   0.723   5.317
  1278G11  C0GD87739   5.707   0.733   5.444
  1278G11  C0FC87740   5.765   0.818   5.537
  1278G11  C0GH87741   5.705   0.842   5.661
  1278G11  C0EY87742   5.745   0.942   5.752
  1278G11  C0EX87743   5.675   0.975   5.867
  1278G11  C0EW87744   5.722   1.081   5.949
  1278G11  C0FR87745   5.640   1.132   6.051
  1278G11  H01D87746   5.657   1.226   6.102
  1278G11  C0FS87747   5.526   1.065   6.081
  1278G11  H01C87748   5.470   1.099   6.166
  1278G11  C0GJ87749   5.483   0.959   6.002
  1278G11  H01N87750   5.385   0.917   6.018
  1278G11  C0EV87751   5.850   1.125   5.921
  1278G11  C0FT87752   5.912   1.203   6.021
  1278G11  H01E87753   5.867   1.215   6.118
  1278G11  C0EU87754   5.917   1.096   5.803
  1278G11  C0ET87755   6.044   1.153   5.780
  1278G11  C0EI87756   6.117   1.129   5.668
  1278G11  C0F187757   6.056   1.045   5.572
  1278G11  C0F087758   5.932   0.982   5.599
  1278G11  C0EH87759   6.248   1.182   5.654
  1278G11  C0EG87760   6.327   1.232   5.761
  1278G11  C0EJ87761   6.301   1.175   5.521
  1278G11  C0F387762   6.233   1.101   5.416
  1278G11  C0EK87763   6.416   1.247   5.487
  1278G11  C0EL87764   6.496   1.305   5.591
  1278G11  C0EM87765   6.615   1.370   5.540
  1278G11  C0EN87766   6.639   1.379   5.404
  1278G11  C07I87767   6.768   1.424   5.376
  1278G11  C07487768   6.827   1.419   5.254
  1278G11  C07387769   6.956   1.458   5.242
  1278G11  C07287770   7.007   1.464   5.114
  1278G11  C07587771   6.746   1.373   5.152
  1278G11  C07687772   6.620   1.320   5.180
  1278G11  C07887773   6.552   1.252   5.086
  1278G11  C07G87774   6.802   1.374   5.027
  1278G11  C07087775   6.730   1.313   4.929
  1278G11  C07Z87776   6.834   1.454   5.496
  1278G11  C07787777   6.565   1.320   5.307
  1278G11  C0EO87778   6.457   1.251   5.351
  1278G11  C0F487779   6.392   1.175   5.255
  1278G11  C0EQ87780   6.110   1.213   5.885
  1278G11  C0FQ87781   5.557   0.913   5.890
  1278G11  C0GI87782   5.518   0.814   5.806
  1278G11  H01L87783   5.427   0.758   5.827
  1278G11  C0EZ87784   5.866   1.001   5.719
  1278G11  C0GG87785   5.591   0.772   5.694
  1278G11  C0GF87786   5.552   0.664   5.611
  1278G11  H01M87787   5.472   0.599   5.643
  1278G11  C0GE87788   5.602   0.652   5.487
  1278G11  H01K87789   5.560   0.587   5.412
  1278G11  O00J87790   5.709   0.646   5.229
  1278G11  C0GA87791   5.766   0.640   5.105
  1278G11  C0G987792   5.706   0.552   5.014
  1278G11  H01H87793   5.618   0.499   5.048
  1278G11  C0G887794   5.750   0.537   4.882
  1278G11  C0G787795   5.690   0.452   4.790
  1278G11  H01I87796   5.604   0.394   4.822
  1278G11  O00I87797   5.747   0.431   4.664
  1278G11  C0G687798   5.843   0.530   4.625
  1278G11  H01J87799   5.871   0.509   4.523
  1278G11  C02D87800   5.909   0.615   4.713
  1278G11  C02C87801   6.023   0.694   4.678
  1278G11  C01787802   6.092   0.679   4.553
  1278G11  C01687803   6.204   0.759   4.522
  1278G11  O00187804   6.045   0.600   4.457
  1278G11  C01887805   6.126   0.544   4.366
  1278G11  C00987806   6.223   0.627   4.315
  1278G11  C00887807   6.298   0.612   4.198
  1278G11  C00787808   6.309   0.504   4.101
  1278G11  C00687809   6.256   0.372   4.126
  1278G11  C00587810   6.279   0.258   4.038
  1278G11  C00487811   6.387   0.237   3.950
  1278G11  C00387812   6.507   0.313   3.900
  1278G11  C00287813   6.603   0.254   3.814
  1278G11  C00P87814   6.726   0.322   3.783
  1278G11  C00O87815   6.828   0.261   3.713
  1278G11  C00N87816   6.945   0.328   3.679
  1278G11  C01087817   7.049   0.264   3.614
  1278G11  C01187818   7.168   0.328   3.575
  1278G11  C01Q87819   7.268   0.255   3.509
  1278G11  C01U87820   7.254   0.119   3.486
  1278G11  C01287821   7.132   0.061   3.521
  1278G11  H00087822   7.122  -0.041   3.486
  1278G11  C01V87823   7.364   0.063   3.413
  1278G11  H00787824   7.360  -0.044   3.396
  1278G11  O00587825   7.480   0.129   3.370
  1278G11  C01W87826   7.491   0.262   3.394
  1278G11  C03187827   7.591   0.335   3.335
  1278G11  C03287828   7.598   0.476   3.354
  1278G11  H00A87829   7.682   0.528   3.310
  1278G11  C03387830   7.500   0.537   3.427
  1278G11  H00B87831   7.500   0.645   3.431
  1278G11  C01O87832   7.402   0.463   3.494
  1278G11  C01N87833   7.308   0.526   3.576
  1278G11  C01M87834   7.325   0.666   3.628
  1278G11  C01L87835   7.426   0.769   3.659
  1278G11  C01K87836   7.359   0.876   3.723
  1278G11  C01Y87837   7.423   0.968   3.808
  1278G11  C02I87838   7.559   0.985   3.797
  1278G11  C02N87839   7.615   1.092   3.874
  1278G11  C02M87840   7.758   1.104   3.863
  1278G11  C02L87841   7.832   1.006   3.802
  1278G11  C02K87842   7.773   0.896   3.734
  1278G11  C02U87843   7.859   0.797   3.692
  1278G11  C02V87844   7.991   0.818   3.674
  1278G11  C03H87845   8.068   0.731   3.587
  1278G11  H00C87846   8.022   0.646   3.539
  1278G11  C02W87847   7.800   0.670   3.684
  1278G11  C02X87848   7.661   0.661   3.683
  1278G11  C02Y87849   7.643   0.519   3.699
  1278G11  H00887850   7.553   0.460   3.700
  1278G11  C02Z87851   7.777   0.458   3.701
  1278G11  O00487852   7.811   0.342   3.714
  1278G11  O00387853   7.861   0.552   3.695
  1278G11  C02J87854   7.633   0.884   3.732
  1278G11  C01Z87855   7.335   1.037   3.892
  1278G11  C02087856   7.199   1.008   3.904
  1278G11  C01I87857   7.144   0.910   3.826
  1278G11  C01H87858   7.028   0.848   3.851
  1278G11  C00K87859   7.001   0.723   3.798
  1278G11  C01S87860   7.093   0.653   3.719
  1278G11  C01487861   7.081   0.521   3.684
  1278G11  C00J87862   6.884   0.656   3.831
  1278G11  C00I87863   6.793   0.710   3.922
  1278G11  C00H87864   6.834   0.830   3.986
  1278G11  C00G87865   6.755   0.883   4.088
  1278G11  C00S87866   6.673   0.647   3.950
  1278G11  C00T87867   6.596   0.712   4.041
  1278G11  C00U87868   6.467   0.661   4.054
  1278G11  C00R87869   6.645   0.516   3.904
  1278G11  C00L87870   6.862   0.523   3.789
  1278G11  C02887871   6.949   0.898   3.951
  1278G11  C02387872   6.993   1.002   4.035
  1278G11  C02487873   6.919   1.049   4.140
  1278G11  C02187874   7.121   1.055   4.007
  1278G11  C02287875   7.172   1.145   4.093
  1278G11  C02H87876   7.099   1.195   4.201
  1278G11  C03087877   7.154   1.286   4.290
  1278G11  C03487878   7.274   1.344   4.258
  1278G11  C02P87879   7.297   1.193   4.067
  1278G11  C02B87880   7.384   1.139   3.970
  1278G11  C01J87881   7.222   0.849   3.725
  1278G11  C01X87882   7.569   0.767   3.684
  1278G11  C01T87883   7.206   0.725   3.673
  1278G11  H00987884   7.670   0.287   3.278
  1278G11  C01P87885   7.389   0.326   3.470
  1278G11  C01R87886   7.188   0.461   3.611
  1278G11  C00Z87887   7.033   0.129   3.582
  1278G11  O00087888   6.915   0.064   3.605
  1278G11  C00M87889   6.963   0.454   3.722
  1278G11  C00Y87890   6.810   0.128   3.668
  1278G11  C01387891   6.693   0.063   3.694
  1278G11  H00187892   6.667  -0.034   3.655
  1278G11  C00Q87893   6.742   0.456   3.824
  1278G11  C00187894   6.589   0.120   3.774
  1278G11  C00087895   6.477   0.049   3.817
  1278G11  H00687896   6.472  -0.056   3.789
  1278G11  C00W87897   6.530   0.451   3.936
  1278G11  C01G87898   6.380   0.104   3.888
  1278G11  H00587899   6.302   0.033   3.905
  1278G11  C01C87900   6.187   0.155   4.085
  1278G11  H00287901   6.185   0.049   4.068
  1278G11  C01B87902   6.099   0.214   4.181
  1278G11  C01D87903   6.003   0.149   4.259
  1278G11  H00387904   5.976   0.045   4.246
  1278G11  C01E87905   5.950   0.230   4.350
  1278G11  H00487906   5.869   0.184   4.406
  1278G11  O00287907   5.981   0.365   4.377
  1278G11  C01A87908   6.149   0.344   4.213
  1278G11  C00V87909   6.435   0.523   4.020
  1278G11  C01987910   6.092   0.418   4.316
  1278G11  C02E87911   6.082   0.782   4.769
  1278G11  C0FX87912   6.032   0.784   4.901
  1278G11  C0FW87913   6.097   0.865   4.998
  1278G11  C0GB87914   5.925   0.704   4.935
  1278G11  C0G387915   6.192   0.863   4.740
  1278G11  C07H87916   6.252   0.945   4.828
  1278G11  C0GC87917   5.869   0.613   4.848
  1278G11  C0G287918   5.879   0.714   5.063
  1278G11  C0G187919   5.936   0.797   5.156
  1278G11  C0FB87920   5.883   0.890   5.506
  1278G11  C0F287921   6.117   1.028   5.447
  1278G11  C0FY87922   6.046   0.871   5.121
  1278G11  C0F587923   6.278   1.100   5.286
  1278G11  C0FV87924   6.201   0.947   4.961
  1278G11  C07987925   6.436   1.179   5.122
  1278G11  C07A87926   6.611   1.242   4.957
  1278G11  C06Y87927   6.715   1.232   4.708
  1278G11  C07D87928   6.360   1.027   4.794
  1278G11  C01F87929   6.252   0.852   4.613
  1278G11  C00A87930   6.263   0.740   4.397
  1278G11  C00X87931   6.393   0.703   4.160
  1278G11  C00F87932   6.631   0.824   4.113
  1278G11  C02987933   6.535   0.987   4.426
  1278G11  C02587934   6.794   0.991   4.168
  1278G11  C06U87935   6.715   1.137   4.489
  1278G11  C02A87936   6.970   1.143   4.227
  1278G11  C05Y87937   7.090   1.314   4.413
  1278G11  C05Z87938   7.153   1.393   4.506
  1278G11  C06087939   7.287   1.428   4.482
  1278G11  C06287940   7.371   1.478   4.583
  1278G11  C06T87941   6.774   1.219   4.580
  1278G11  C06A87942   7.095   1.407   4.633
  1278G11  C06Z87943   6.782   1.308   4.807
  1278G11  C06Q87944   6.932   1.422   5.007
  1278G11  C06887945   7.175   1.455   4.733
  1278G11  C06787946   7.314   1.496   4.709
  1278G11  C06387947   7.541   1.616   5.038
  1278G11  C06C87948   7.609   1.640   5.157
  1278G11  C06D87949   7.742   1.682   5.148
  1278G11  C06E87950   7.825   1.696   5.257
  1278G11  C07Q87951   7.779   1.670   5.385
  1278G11  C07P87952   7.645   1.634   5.399
  1278G11  C07T87953   7.596   1.610   5.523
  1278G11  C07U87954   7.466   1.587   5.540
  1278G11  C07V87955   7.419   1.557   5.669
  1278G11  C08487956   7.507   1.554   5.777
  1278G11  C08C87957   7.635   1.595   5.759
  1278G11  C08B87958   7.717   1.607   5.870
  1278G11  C08A87959   7.846   1.641   5.843
  1278G11  C08987960   7.900   1.673   5.724
  1278G11  C08887961   8.035   1.703   5.710
  1278G11  C08787962   8.089   1.726   5.582
  1278G11  C08687963   8.007   1.710   5.473
  1278G11  C08X87964   8.112   1.721   5.827
  1278G11  C08T87965   8.069   1.663   5.948
  1278G11  C08D87966   7.820   1.654   5.614
  1278G11  C08U87967   7.931   1.637   5.951
  1278G11  C08V87968   7.894   1.595   6.075
  1278G11  C0CY87969   7.765   1.552   6.102
  1278G11  C0CX87970   7.733   1.518   6.228
  1278G11  C0CW87971   7.601   1.481   6.242
  1278G11  C0CV87972   7.508   1.483   6.140
  1278G11  C0D487973   7.549   1.520   6.013
  1278G11  C0CU87974   7.377   1.445   6.162
  1278G11  C0CT87975   7.332   1.407   6.290
  1278G11  C0CS87976   7.422   1.404   6.391
  1278G11  C0D687977   7.298   1.447   6.053
  1278G11  C0EC87978   7.335   1.486   5.924
  1278G11  C07X87979   7.244   1.487   5.814
  1278G11  C0DL87980   7.168   1.424   6.069
  1278G11  C0DK87981   7.079   1.427   5.967
  1278G11  C0DN87982   6.956   1.410   6.019
  1278G11  C0D887983   7.107   1.389   6.196
  1278G11  C08W87984   7.998   1.593   6.168
  1278G11  C0CQ87985   7.966   1.557   6.303
  1278G11  C09387986   7.676   1.562   5.994
  1278G11  C09287987   7.464   1.520   5.904
  1278G11  C08587988   7.682   1.623   5.634
  1278G11  C07S87989   7.868   1.680   5.488
  1278G11  C06F87990   7.960   1.742   5.239
  1278G11  C07O87991   7.560   1.616   5.287
  1278G11  C07N87992   7.426   1.587   5.302
  1278G11  C05D87993   7.787   1.720   5.030
  1278G11  C05C87994   7.919   1.763   5.009
  1278G11  C05N87995   7.936   1.787   4.876
  1278G11  C05M87996   7.723   1.602   4.622
  1278G11  C05I87997   7.510   1.512   4.555
  1278G11  C06187998   7.338   1.414   4.357
  1278G11  C02Q87999   7.336   1.298   4.147
  1278G11  C02O88000   7.517   1.171   3.950
  1278G11  C03Q88001   7.652   1.418   4.184
  1278G11  C03O88002   7.892   1.438   4.223
  1278G11  C03L88003   8.171   1.329   4.031
  1278G11  C02S88004   7.829   1.199   3.945
  1278G11  C02T88005   7.974   1.020   3.800
  1278G11  C03K88006   8.253   1.241   3.936
  1278G11  C03I88007   8.053   0.929   3.730
  1278G11  C03G88008   8.205   0.754   3.565
  1278G11  H00D88009   8.266   0.692   3.502
  1278G11  C03J88010   8.393   1.062   3.764
  1278G11  C03W88011   8.671   1.061   3.739
  1278G11  C04I88012   8.681   1.228   3.900
  1278G11  C04K88013   8.815   1.359   4.104
  1278G11  C04N88014   8.866   1.399   4.226
  1278G11  C04X88015   8.831   1.491   4.451
  1278G11  C05088016   8.799   1.576   4.684
  1278G11  C05W88017   8.544   1.672   4.595
  1278G11  C05S88018   8.581   1.765   5.062
  1278G11  C05R88019   8.355   1.809   4.794
  1278G11  C05O88020   8.071   1.805   4.842
  1278G11  C05B88021   8.007   1.777   5.117
  1278G11  C05A88022   8.360   1.821   5.143
  1278G11  C07R88023   8.053   1.743   5.346
  1278G11  C08N88024   8.217   1.767   5.568
  1278G11  C08M88025   8.300   1.786   5.684
  1278G11  C08L88026   8.437   1.817   5.671
  1278G11  C09188027   8.492   1.776   5.185
  1278G11  C09K88028   8.751   1.692   5.416
  1278G11  H00M88029   8.762   1.592   5.376
  1278G11  C08K88030   8.489   1.814   5.539
  1278G11  C09J88031   8.830   1.757   5.520
  1278G11  C09I88032   8.920   1.722   5.629
  1278G11  C09L88033   9.048   1.658   5.626
  1278G11  H00N88034   9.084   1.604   5.540
  1278G11  C09Q88035   9.119   1.655   5.744
  1278G11  H00O88036   9.209   1.595   5.739
  1278G11  O00B88037   9.074   1.698   5.869
  1278G11  C09G88038   8.937   1.735   5.880
  1278G11  C09F88039   8.891   1.756   6.015
  1278G11  O00A88040   8.986   1.721   6.112
  1278G11  C09P88041   8.942   1.695   6.239
  1278G11  H00P88042   9.006   1.634   6.301
  1278G11  C09O88043   8.811   1.734   6.288
  1278G11  C09D88044   8.717   1.783   6.188
  1278G11  C09C88045   8.574   1.804   6.213
  1278G11  C09N88046   8.487   1.747   6.314
  1278G11  C09T88047   8.524   1.664   6.418
  1278G11  C09S88048   8.645   1.699   6.475
  1278G11  C0CP88049   8.612   1.717   6.607
  1278G11  C0CN88050   8.480   1.685   6.645
  1278G11  C0CO88051   8.434   1.706   6.775
  1278G11  H01488052   8.335   1.689   6.815
  1278G11  C0CZ88053   8.532   1.746   6.872
  1278G11  H01588054   8.492   1.773   6.968
  1278G11  C0D088055   8.673   1.772   6.836
  1278G11  C0G588056   8.771   1.838   6.925
  1278G11  H01F88057   8.743   1.864   7.026
  1278G11  C0G488058   8.893   1.863   6.879
  1278G11  H01G88059   8.965   1.903   6.949
  1278G11  O00H88060   8.938   1.833   6.754
  1278G11  C0D288061   8.845   1.782   6.666
  1278G11  C09V88062   8.871   1.764   6.526
  1278G11  H00Q88063   8.972   1.787   6.493
  1278G11  C0D188064   8.711   1.757   6.701
  1278G11  C09R88065   8.776   1.727   6.429
  1278G11  C09H88066   8.869   1.762   5.758
  1278G11  C09E88067   8.758   1.803   6.048
  1278G11  C09B88068   8.488   1.880   6.136
  1278G11  C08Z88069   8.508   1.843   5.794
  1278G11  C08O88070   8.243   1.770   5.819
  1278G11  C09A88071   8.354   1.873   6.172
  1278G11  C08S88072   8.113   1.638   6.087
  1278G11  C09988073   8.355   1.791   6.289
  1278G11  C09U88074   8.423   1.639   6.521
  1278G11  C0BO88075   8.080   1.394   6.737
  1278G11  C0CL88076   8.063   1.550   6.405
  1278G11  C0D388077   7.830   1.514   6.326
  1278G11  C0D588078   7.556   1.443   6.369
  1278G11  C0BR88079   7.849   1.397   6.665
  1278G11  C0BQ88080   7.947   1.365   6.760
  1278G11  C0BL88081   8.139   1.290   6.949
  1278G11  C0AF88082   8.059   1.209   7.197
  1278G11  C0BH88083   7.733   1.242   7.037
  1278G11  C0BG88084   7.597   1.220   7.065
  1278G11  C0BD88085   7.651   1.183   7.298
  1278G11  C0AG88086   8.018   1.174   7.321
  1278G11  C0AI88087   8.068   1.052   7.521
  1278G11  C0AV88088   7.983   0.859   7.690
  1278G11  C0BB88089   7.685   1.072   7.651
  1278G11  O00C88090   7.775   0.756   7.786
  1278G11  C0BC88091   7.558   1.041   7.693
  1278G11  C0B988092   7.610   1.140   7.425
  1278G11  O00E88093   7.262   1.065   7.372
  1278G11  C0CA88094   7.166   1.090   7.288
  1278G11  O00F88095   7.047   1.087   7.322
  1278G11  C0BF88096   7.561   1.182   7.192
  1278G11  C0C588097   7.204   1.130   7.157
  1278G11  C0C488098   7.103   1.152   7.055
  1278G11  H01188099   7.002   1.131   7.085
  1278G11  C0C888100   7.505   1.239   6.966
  1278G11  C0C288101   7.151   1.177   6.922
  1278G11  C0C388102   7.063   1.174   6.812
  1278G11  C0DY88103   6.925   1.143   6.811
  1278G11  H01688104   6.856   1.093   6.878
  1278G11  C0DX88105   6.883   1.180   6.681
  1278G11  C0DW88106   6.751   1.137   6.637
  1278G11  C0BY88107   7.452   1.302   6.747
  1278G11  C0DB88108   7.096   1.222   6.686
  1278G11  C0CC88109   7.386   1.347   6.510
  1278G11  C0D788110   7.193   1.374   6.311
  1278G11  C0DZ88111   6.986   1.232   6.598
  1278G11  C0DM88112   6.968   1.386   6.162
  1278G11  C0DQ88113   6.750   1.234   6.403
  1278G11  C0DV88114   6.698   1.159   6.507
  1278G11  C0E088115   6.647   1.067   6.716
  1278G11  C0FO88116   6.301   1.098   6.666
  1278G11  C0E388117   6.585   1.097   6.844
  1278G11  H01788118   6.623   1.171   6.912
  1278G11  C0GV88119   6.245   1.136   6.785
  1278G11  C0ES88120   6.264   1.178   6.552
  1278G11  C0GQ88121   5.976   1.359   6.695
  1278G11  C0FJ88122   5.907   1.429   6.338
  1278G11  C0ED88123   6.177   1.324   6.318
  1278G11  C0ER88124   6.045   1.244   6.003
  1278G11  C0EP88125   6.248   1.245   5.882
  1278G11  C0E688126   6.406   1.270   6.223
  1278G11  C0DE88127   6.661   1.339   6.053
  1278G11  C0EA88128   6.458   1.283   5.734
  1278G11  C0DF88129   6.720   1.427   5.960
  1278G11  C08088130   6.730   1.425   5.591
  1278G11  C0DO88131   6.859   1.414   5.928
  1278G11  C0DJ88132   7.111   1.463   5.833
  1278G11  C07K88133   6.979   1.485   5.489
  1278G11  C07W88134   7.284   1.523   5.692
  1278G11  C08388135   7.380   1.569   5.432
  1278G11  C07J88136   7.030   1.492   5.357
  1278G11  C06O88137   7.139   1.504   5.098
  1278G11  C06M88138   7.349   1.567   5.186
  1288G11  C07188139   5.486   0.255  12.415
  1288G11  C07L88140   5.516   0.280  12.281
  1288G11  C07M88141   5.502   0.410  12.228
  1288G11  C07Y88142   5.531   0.442  12.095
  1288G11  C08188143   5.573   0.340  12.002
  1288G11  C08288144   5.589   0.379  11.867
  1288G11  C0DI88145   5.613   0.292  11.751
  1288G11  C0DH88146   5.654   0.155  11.740
  1288G11  C0DG88147   5.649   0.114  11.605
  1288G11  C0E988148   5.748   0.039  11.534
  1288G11  C0E888149   5.789   0.114  11.405
  1288G11  C0E788150   5.882   0.078  11.298
  1288G11  C0EB88151   5.946  -0.047  11.303
  1288G11  C0EF88152   6.053  -0.102  11.220
  1288G11  C0EE88153   6.158  -0.043  11.153
  1288G11  C0FD88154   6.288  -0.091  11.178
  1288G11  C0FE88155   6.318  -0.187  11.277
  1288G11  H01B88156   6.238  -0.233  11.333
  1288G11  C0FF88157   6.449  -0.222  11.309
  1288G11  H01A88158   6.473  -0.287  11.391
  1288G11  C0FG88159   6.546  -0.166  11.222
  1288G11  H01888160   6.648  -0.199  11.232
  1288G11  C0FH88161   6.523  -0.068  11.117
  1288G11  C0FI88162   6.622  -0.006  11.031
  1288G11  H01988163   6.725  -0.035  11.049
  1288G11  O00K88164   6.593   0.076  10.930
  1288G11  C0FL88165   6.461   0.114  10.922
  1288G11  C0FK88166   6.354   0.059  10.999
  1288G11  C0FM88167   6.224   0.105  10.981
  1288G11  C0FN88168   6.198   0.200  10.880
  1288G11  C0FP88169   6.301   0.250  10.801
  1288G11  C0GO88170   6.286   0.357  10.713
  1288G11  C0GN88171   6.390   0.430  10.656
  1288G11  C0GR88172   6.517   0.375  10.677
  1288G11  C0GS88173   6.630   0.446  10.620
  1288G11  H01Q88174   6.730   0.406  10.627
  1288G11  C0GT88175   6.618   0.573  10.562
  1288G11  H01O88176   6.708   0.621  10.528
  1288G11  C0GU88177   6.489   0.621  10.545
  1288G11  H01P88178   6.482   0.719  10.502
  1288G11  O00L88179   6.543   0.264  10.751
  1288G11  C0GM88180   6.372   0.552  10.586
  1288G11  C0GL88181   6.240   0.605  10.583
  1288G11  H01R88182   6.213   0.695  10.529
  1288G11  C0GK88183   6.132   0.526  10.631
  1288G11  C0GP88184   5.991   0.540  10.655
  1288G11  C0E288185   5.937   0.410  10.707
  1288G11  C0E188186   5.826   0.439  10.787
  1288G11  C0DU88187   5.811   0.400  10.921
  1288G11  C0DT88188   5.866   0.298  10.994
  1288G11  C0E488189   5.982   0.229  10.967
  1288G11  C0E588190   6.015   0.149  11.073
  1288G11  C0DS88191   5.833   0.268  11.127
  1288G11  C0DR88192   5.746   0.359  11.185
  1288G11  C0DD88193   5.700   0.355  11.319
  1288G11  C0DC88194   5.627   0.484  11.335
  1288G11  C0DP88195   5.629   0.564  11.212
  1288G11  C0DA88196   5.577   0.708  11.200
  1288G11  C0D988197   5.528   0.817  11.296
  1288G11  C0CR88198   5.477   0.948  11.253
  1288G11  C0C088199   5.470   0.982  11.122
  1288G11  C0BZ88200   5.410   1.091  11.061
  1288G11  C0C188201   5.412   1.116  10.921
  1288G11  C0C788202   5.362   1.237  10.876
  1288G11  C0C688203   5.364   1.269  10.738
  1288G11  C0C988204   5.293   1.371  10.689
  1288G11  C0B888205   5.300   1.393  10.548
  1288G11  C0B788206   5.214   1.490  10.488
  1288G11  C0B688207   5.205   1.534  10.347
  1288G11  C0B588208   5.318   1.553  10.261
  1288G11  H00Z88209   5.415   1.507  10.270
  1288G11  C0B488210   5.288   1.671  10.183
  1288G11  H01088211   5.360   1.726  10.124
  1288G11  C0B388212   5.151   1.715  10.210
  1288G11  C0AP88213   5.072   1.840  10.238
  1288G11  C0AQ88214   4.992   1.803  10.349
  1288G11  C0AR88215   4.947   1.904  10.439
  1288G11  C0AS88216   4.921   1.855  10.566
  1288G11  C0AT88217   4.973   1.745  10.624
  1288G11  C0BA88218   5.036   1.653  10.537
  1288G11  C0AU88219   4.986   1.731  10.759
  1288G11  C0BE88220   5.067   1.631  10.812
  1288G11  C0BI88221   5.093   1.625  10.945
  1288G11  C0BJ88222   5.038   1.721  11.031
  1288G11  C0BK88223   5.056   1.714  11.165
  1288G11  C0BW88224   5.122   1.604  11.213
  1288G11  C0BV88225   5.181   1.506  11.130
  1288G11  C0BU88226   5.249   1.395  11.187
  1288G11  C0BX88227   5.297   1.303  11.098
  1288G11  C0BT88228   5.247   1.373  11.321
  1288G11  C0CD88229   5.300   1.251  11.375
  1288G11  C0CB88230   5.364   1.159  11.289
  1288G11  C0CE88231   5.319   1.243  11.509
  1288G11  C0CK88232   5.250   1.334  11.588
  1288G11  C0BS88233   5.189   1.450  11.544
  1288G11  C0CJ88234   5.114   1.534  11.630
  1288G11  C0BP88235   5.065   1.655  11.573
  1288G11  C0CI88236   4.992   1.746  11.650
  1288G11  C0CH88237   4.969   1.875  11.594
  1288G11  H01288238   4.935   1.943  11.671
  1288G11  C0BN88239   4.961   1.897  11.459
  1288G11  C0CG88240   4.905   2.016  11.405
  1288G11  C0CF88241   4.840   2.115  11.490
  1288G11  H01388242   4.836   2.114  11.598
  1288G11  O00G88243   4.765   2.217  11.434
  1288G11  C0AA88244   4.788   2.237  11.300
  1288G11  C0A988245   4.756   2.365  11.261
  1288G11  H00U88246   4.719   2.438  11.332
  1288G11  C0A888247   4.766   2.396  11.125
  1288G11  H00V88248   4.725   2.493  11.099
  1288G11  C0A788249   4.801   2.301  11.025
  1288G11  C0A688250   4.851   2.173  11.077
  1288G11  C0A588251   4.893   2.067  10.996
  1288G11  C0A488252   4.868   2.064  10.855
  1288G11  C0A388253   4.832   2.159  10.749
  1288G11  C0A288254   4.822   2.296  10.768
  1288G11  C0A188255   4.800   2.391  10.659
  1288G11  C0A088256   4.824   2.382  10.512
  1288G11  C09Z88257   4.779   2.501  10.446
  1288G11  C09Y88258   4.804   2.511  10.303
  1288G11  H00Y88259   4.780   2.598  10.244
  1288G11  C09X88260   4.885   2.413  10.240
  1288G11  C09W88261   4.922   2.441  10.104
  1288G11  H00R88262   4.903   2.541  10.067
  1288G11  C0AX88263   4.988   2.346  10.025
  1288G11  H00S88264   5.004   2.374   9.922
  1288G11  C0AW88265   5.015   2.224  10.080
  1288G11  H00T88266   5.065   2.153  10.016
  1288G11  C0AN88267   4.987   2.196  10.221
  1288G11  C0AO88268   5.009   2.070  10.277
  1288G11  C0AM88269   4.921   2.290  10.303
  1288G11  C0B288270   4.707   2.612  10.503
  1288G11  O00D88271   4.657   2.705  10.436
  1288G11  C0B188272   4.697   2.610  10.649
  1288G11  H00W88273   4.657   2.699  10.696
  1288G11  C0AL88274   4.884   2.270  10.439
  1288G11  C0AK88275   4.896   2.140  10.484
  1288G11  C0B088276   4.743   2.504  10.722
  1288G11  C0AZ88277   4.748   2.489  10.861
  1288G11  H00X88278   4.728   2.574  10.925
  1288G11  C0AJ88279   4.860   2.098  10.618
  1288G11  C0AH88280   4.883   1.941  10.788
  1288G11  C0AE88281   4.943   1.946  11.054
  1288G11  C0AD88282   4.951   1.933  11.189
  1288G11  C0AY88283   4.797   2.357  10.893
  1288G11  C0AB88284   4.844   2.147  11.214
  1288G11  C0AC88285   4.900   2.032  11.271
  1288G11  C0BM88286   5.010   1.797  11.380
  1288G11  C0CM88287   4.945   1.701  11.774
  1288G11  C09M88288   5.029   1.608  11.846
  1288G11  C09888289   5.026   1.624  11.988
  1288G11  C08R88290   5.054   1.527  12.093
  1288G11  C08Q88291   5.049   1.585  12.215
  1288G11  C08P88292   5.045   1.538  12.353
  1288G11  C08Y88293   4.988   1.629  12.447
  1288G11  C09788294   4.923   1.737  12.393
  1288G11  C09688295   4.802   1.761  12.455
  1288G11  C09088296   4.816   1.689  12.577
  1288G11  C09588297   4.717   1.683  12.678
  1288G11  C09488298   4.754   1.634  12.813
  1288G11  C08J88299   4.836   1.518  12.847
  1288G11  C08I88300   4.761   1.436  12.932
  1288G11  C08H88301   4.806   1.298  12.918
  1288G11  C08G88302   4.885   1.294  12.791
  1288G11  C08F88303   4.975   1.200  12.720
  1288G11  C08E88304   5.021   1.077  12.780
  1288G11  C05988305   5.014   1.044  12.925
  1288G11  C05888306   5.073   0.925  12.971
  1288G11  C05788307   5.070   0.883  13.102
  1288G11  C05688308   5.012   0.968  13.193
  1288G11  C05588309   4.966   1.091  13.163
  1288G11  C05488310   4.874   1.129  13.256
  1288G11  C05388311   4.846   1.016  13.349
  1288G11  C05288312   4.741   0.999  13.447
  1288G11  C05188313   4.643   1.102  13.469
  1288G11  C05U88314   4.622   1.218  13.387
  1288G11  C05T88315   4.669   1.265  13.261
  1288G11  C06K88316   4.635   1.402  13.259
  1288G11  H00J88317   4.666   1.465  13.177
  1288G11  C06L88318   4.560   1.447  13.369
  1288G11  H00I88319   4.524   1.545  13.395
  1288G11  C05V88320   4.546   1.323  13.446
  1288G11  C06J88321   4.472   1.310  13.563
  1288G11  H00K88322   4.421   1.394  13.609
  1288G11  C05X88323   4.471   1.189  13.634
  1288G11  C06I88324   4.399   1.161  13.751
  1288G11  H00L88325   4.338   1.238  13.797
  1288G11  C04Z88326   4.383   1.034  13.819
  1288G11  C06H88327   4.297   1.015  13.935
  1288G11  H00H88328   4.247   1.101  13.978
  1288G11  C04Y88329   4.295   0.884  13.989
  1288G11  C06G88330   4.216   0.862  14.112
  1288G11  O00988331   4.145   0.951  14.158
  1288G11  O00888332   4.207   0.738  14.165
  1288G11  C04P88333   4.270   0.633  14.099
  1288G11  C04J88334   4.275   0.495  14.152
  1288G11  C04Q88335   4.208   0.444  14.260
  1288G11  H00E88336   4.146   0.518  14.308
  1288G11  C04M88337   4.205   0.308  14.301
  1288G11  C04R88338   4.135   0.249  14.408
  1288G11  H00F88339   4.087   0.316  14.478
  1288G11  C04S88340   4.124   0.116  14.421
  1288G11  H00G88341   4.076   0.072  14.507
  1288G11  O00788342   4.187   0.028  14.333
  1288G11  C03V88343   4.262   0.081  14.234
  1288G11  C03U88344   4.320  -0.011  14.149
  1288G11  O00688345   4.301  -0.148  14.172
  1288G11  C03F88346   4.339  -0.233  14.076
  1288G11  C03E88347   4.429  -0.193  13.972
  1288G11  C03D88348   4.465  -0.058  13.963
  1288G11  C03C88349   4.556  -0.016  13.863
  1288G11  C03B88350   4.601  -0.121  13.786
  1288G11  C03A88351   4.703  -0.091  13.696
  1288G11  C03988352   4.745   0.048  13.672
  1288G11  C03888353   4.848   0.033  13.567
  1288G11  C03788354   4.847  -0.109  13.543
  1288G11  C03688355   4.936  -0.156  13.454
  1288G11  C02R88356   4.947  -0.288  13.411
  1288G11  C03588357   5.045  -0.274  13.314
  1288G11  C03R88358   5.072  -0.147  13.283
  1288G11  C03S88359   5.152  -0.101  13.181
  1288G11  C04988360   5.160   0.036  13.166
  1288G11  C04888361   5.091   0.110  13.270
  1288G11  C03P88362   5.006   0.067  13.379
  1288G11  C04788363   5.117   0.245  13.255
  1288G11  C04688364   5.090   0.354  13.346
  1288G11  C04588365   5.012   0.359  13.459
  1288G11  C03T88366   4.934   0.257  13.525
  1288G11  C04488367   4.856   0.322  13.622
  1288G11  C04388368   4.895   0.459  13.629
  1288G11  C04288369   4.778   0.525  13.670
  1288G11  C04188370   4.698   0.423  13.740
  1288G11  C04088371   4.579   0.442  13.804
  1288G11  C03Z88372   4.524   0.353  13.902
  1288G11  C04H88373   4.435   0.433  13.979
  1288G11  C04G88374   4.432   0.562  13.929
  1288G11  C03N88375   4.524   0.209  13.932
  1288G11  C03Y88376   4.435   0.173  14.033
  1288G11  C03X88377   4.357   0.266  14.112
  1288G11  C04F88378   4.522   0.573  13.827
  1288G11  C04E88379   4.539   0.706  13.778
  1288G11  C04O88380   4.450   0.808  13.824
  1288G11  C04D88381   4.638   0.741  13.681
  1288G11  C04V88382   4.641   0.865  13.624
  1288G11  C04W88383   4.543   0.964  13.657
  1288G11  C04C88384   4.743   0.660  13.628
  1288G11  C04L88385   4.821   0.758  13.548
  1288G11  C04U88386   4.946   0.730  13.475
  1288G11  C05Q88387   4.989   0.804  13.362
  1288G11  C05P88388   5.065   0.725  13.278
  1288G11  C04T88389   5.074   0.599  13.328
  1288G11  C04B88390   5.003   0.599  13.452
  1288G11  C03M88391   4.749   0.287  13.715
  1288G11  C04A88392   4.978   0.481  13.518
  1288G11  C05H88393   5.124   0.472  13.280
  1288G11  C05G88394   5.164   0.436  13.147
  1288G11  C05F88395   5.200   0.526  13.050
  1288G11  C05E88396   5.243   0.495  12.917
  1288G11  C05L88397   5.276   0.379  12.837
  1288G11  C05K88398   5.276   0.250  12.890
  1288G11  C05J88399   5.229   0.210  13.020
  1288G11  C06688400   5.332   0.150  12.804
  1288G11  C06588401   5.392   0.185  12.673
  1288G11  C06488402   5.390   0.321  12.629
  1288G11  C06N88403   5.449   0.087  12.594
  1288G11  C06988404   5.446  -0.046  12.630
  1288G11  C06P88405   5.487  -0.148  12.544
  1288G11  C06R88406   5.465  -0.283  12.571
  1288G11  C06B88407   5.407  -0.324  12.686
  1288G11  C06S88408   5.378  -0.455  12.716
  1288G11  C02G88409   5.316  -0.491  12.832
  1288G11  C02F88410   5.275  -0.627  12.857
  1288G11  C02788411   5.304  -0.723  12.765
  1288G11  C02688412   5.256  -0.851  12.783
  1288G11  C00E88413   5.286  -0.950  12.694
  1288G11  C00D88414   5.227  -1.074  12.707
  1288G11  C00C88415   5.238  -1.161  12.597
  1288G11  C00B88416   5.297  -1.130  12.478
  1288G11  C01588417   5.352  -1.003  12.464
  1288G11  C07F88418   5.403  -0.968  12.341
  1288G11  C07E88419   5.468  -0.843  12.330
  1288G11  C06W88420   5.457  -0.749  12.434
  1288G11  C06V88421   5.397  -0.785  12.553
  1288G11  C06X88422   5.489  -0.615  12.410
  1288G11  C07B88423   5.547  -0.578  12.288
  1288G11  C07C88424   5.559  -0.673  12.183
  1288G11  C0FU88425   5.604  -0.628  12.056
  1288G11  C0F788426   5.598  -0.716  11.950
  1288G11  C0F688427   5.642  -0.674  11.825
  1288G11  C0F888428   5.635  -0.759  11.716
  1288G11  C0F988429   5.687  -0.726  11.595
  1288G11  C0FA88430   5.695  -0.822  11.495
  1288G11  C0FZ88431   5.635  -0.943  11.509
  1288G11  C0G088432   5.633  -1.034  11.401
  1288G11  C0GD88433   5.692  -1.005  11.278
  1288G11  C0FC88434   5.769  -0.885  11.269
  1288G11  C0GH88435   5.835  -0.848  11.154
  1288G11  C0EY88436   5.905  -0.723  11.142
  1288G11  C0EX88437   5.986  -0.693  11.029
  1288G11  C0EW88438   6.043  -0.565  11.020
  1288G11  C0FR88439   6.115  -0.529  10.906
  1288G11  H01D88440   6.162  -0.433  10.895
  1288G11  C0FS88441   6.138  -0.623  10.806
  1288G11  H01C88442   6.202  -0.597  10.723
  1288G11  C0GJ88443   6.081  -0.750  10.820
  1288G11  H01N88444   6.095  -0.830  10.749
  1288G11  C0EV88445   6.016  -0.470  11.120
  1288G11  C0FT88446   6.078  -0.343  11.110
  1288G11  H01E88447   6.158  -0.318  11.043
  1288G11  C0EU88448   5.932  -0.500  11.223
  1288G11  C0ET88449   5.902  -0.410  11.320
  1288G11  C0EI88450   5.827  -0.434  11.428
  1288G11  C0F188451   5.787  -0.567  11.449
  1288G11  C0F088452   5.811  -0.663  11.352
  1288G11  C0EH88453   5.802  -0.332  11.520
  1288G11  C0EG88454   5.821  -0.190  11.492
  1288G11  C0EJ88455   5.756  -0.368  11.644
  1288G11  C0F388456   5.727  -0.503  11.672
  1288G11  C0EK88457   5.737  -0.276  11.750
  1288G11  C0EL88458   5.740  -0.136  11.718
  1288G11  C0EM88459   5.720  -0.058  11.834
  1288G11  C0EN88460   5.711  -0.110  11.961
  1288G11  C07I88461   5.677  -0.015  12.053
  1288G11  C07488462   5.629  -0.048  12.175
  1288G11  C07388463   5.579   0.054  12.254
  1288G11  C07288464   5.542   0.024  12.385
  1288G11  C07588465   5.626  -0.179  12.208
  1288G11  C07688466   5.658  -0.279  12.118
  1288G11  C07888467   5.633  -0.409  12.142
  1288G11  C07G88468   5.570  -0.214  12.327
  1288G11  C07088469   5.549  -0.348  12.357
  1288G11  C07Z88470   5.655   0.104  11.982
  1288G11  C07788471   5.705  -0.246  11.989
  1288G11  C0EO88472   5.711  -0.326  11.881
  1288G11  C0F488473   5.684  -0.458  11.906
  1288G11  C0EQ88474   5.947  -0.280  11.299
  1288G11  C0FQ88475   5.994  -0.785  10.924
  1288G11  C0GI88476   5.915  -0.900  10.932
  1288G11  H01L88477   5.915  -0.964  10.845
  1288G11  C0EZ88478   5.885  -0.628  11.238
  1288G11  C0GG88479   5.841  -0.934  11.045
  1288G11  C0GF88480   5.772  -1.057  11.055
  1288G11  H01M88481   5.778  -1.124  10.970
  1288G11  C0GE88482   5.691  -1.086  11.163
  1288G11  H01K88483   5.642  -1.182  11.163
  1288G11  O00J88484   5.569  -1.156  11.415
  1288G11  C0GA88485   5.499  -1.183  11.528
  1288G11  C0G988486   5.415  -1.294  11.535
  1288G11  H01H88487   5.394  -1.354  11.447
  1288G11  C0G888488   5.347  -1.320  11.654
  1288G11  C0G788489   5.247  -1.426  11.668
  1288G11  H01I88490   5.223  -1.491  11.585
  1288G11  O00I88491   5.176  -1.450  11.785
  1288G11  C0G688492   5.209  -1.366  11.888
  1288G11  H01J88493   5.137  -1.367  11.969
  1288G11  C02D88494   5.316  -1.278  11.886
  1288G11  C02C88495   5.358  -1.214  12.004
  1288G11  C01788496   5.306  -1.251  12.134
  1288G11  C01688497   5.322  -1.172  12.246
  1288G11  O00188498   5.261  -1.375  12.151
  1288G11  C01888499   5.176  -1.405  12.260
  1288G11  C00988500   5.190  -1.330  12.376
  1288G11  C00888501   5.127  -1.357  12.499
  1288G11  C00788502   5.016  -1.440  12.543
  1288G11  C00688503   4.943  -1.531  12.454
  1288G11  C00588504   4.821  -1.598  12.487
  1288G11  C00488505   4.739  -1.581  12.608
  1288G11  C00388506   4.753  -1.501  12.735
  1288G11  C00288507   4.655  -1.519  12.837
  1288G11  C00P88508   4.660  -1.449  12.954
  1288G11  C00O88509   4.558  -1.459  13.048
  1288G11  C00N88510   4.545  -1.370  13.157
  1288G11  C01088511   4.425  -1.363  13.232
  1288G11  C01188512   4.403  -1.260  13.322
  1288G11  C01Q88513   4.276  -1.237  13.371
  1288G11  C01U88514   4.172  -1.330  13.348
  1288G11  C01288515   4.196  -1.443  13.259
  1288G11  H00088516   4.115  -1.513  13.240
  1288G11  C01V88517   4.046  -1.310  13.410
  1288G11  H00788518   3.973  -1.389  13.399
  1288G11  O00588519   4.016  -1.199  13.484
  1288G11  C01W88520   4.115  -1.103  13.486
  1288G11  C03188521   4.077  -0.977  13.536
  1288G11  C03288522   4.167  -0.868  13.528
  1288G11  H00A88523   4.142  -0.768  13.561
  1288G11  C03388524   4.298  -0.898  13.485
  1288G11  H00B88525   4.371  -0.819  13.478
  1288G11  C01O88526   4.343  -1.030  13.458
  1288G11  C01N88527   4.481  -1.058  13.432
  1288G11  C01M88528   4.594  -0.960  13.464
  1288G11  C01L88529   4.618  -0.827  13.528
  1288G11  C01K88530   4.737  -0.786  13.470
  1288G11  C01Y88531   4.786  -0.655  13.462
  1288G11  C02I88532   4.724  -0.560  13.538
  1288G11  C02N88533   4.781  -0.431  13.527
  1288G11  C02M88534   4.722  -0.328  13.614
  1288G11  C02L88535   4.617  -0.355  13.704
  1288G11  C02K88536   4.565  -0.488  13.701
  1288G11  C02U88537   4.463  -0.515  13.795
  1288G11  C02V88538   4.417  -0.418  13.887
  1288G11  C03H88539   4.327  -0.449  13.991
  1288G11  H00C88540   4.305  -0.549  14.023
  1288G11  C02W88541   4.401  -0.641  13.794
  1288G11  C02X88542   4.457  -0.739  13.713
  1288G11  C02Y88543   4.387  -0.858  13.745
  1288G11  H00888544   4.399  -0.962  13.716
  1288G11  C02Z88545   4.279  -0.820  13.837
  1288G11  O00488546   4.186  -0.890  13.886
  1288G11  O00388547   4.299  -0.690  13.867
  1288G11  C02J88548   4.615  -0.592  13.616
  1288G11  C01Z88549   4.890  -0.636  13.374
  1288G11  C02088550   4.945  -0.738  13.296
  1288G11  C01I88551   4.892  -0.865  13.298
  1288G11  C01H88552   4.917  -0.966  13.210
  1288G11  C00K88553   4.834  -1.079  13.204
  1288G11  C01S88554   4.724  -1.089  13.288
  1288G11  C01488555   4.628  -1.187  13.275
  1288G11  C00J88556   4.847  -1.170  13.100
  1288G11  C00I88557   4.950  -1.149  13.008
  1288G11  C00H88558   5.038  -1.040  13.017
  1288G11  C00G88559   5.126  -1.008  12.911
  1288G11  C00S88560   4.958  -1.231  12.899
  1288G11  C00T88561   5.059  -1.210  12.816
  1288G11  C00U88562   5.064  -1.295  12.710
  1288G11  C00R88563   4.866  -1.339  12.880
  1288G11  C00L88564   4.751  -1.270  13.084
  1288G11  C02888565   5.013  -0.943  13.111
  1288G11  C02388566   5.069  -0.817  13.101
  1288G11  C02488567   5.151  -0.791  12.991
  1288G11  C02188568   5.037  -0.713  13.188
  1288G11  C02288569   5.088  -0.589  13.177
  1288G11  C02H88570   5.168  -0.562  13.065
  1288G11  C03088571   5.212  -0.430  13.041
  1288G11  C03488572   5.162  -0.332  13.122
  1288G11  C02P88573   5.035  -0.495  13.260
  1288G11  C02B88574   4.938  -0.514  13.359
  1288G11  C01J88575   4.792  -0.888  13.395
  1288G11  C01X88576   4.563  -0.728  13.620
  1288G11  C01T88577   4.709  -0.994  13.390
  1288G11  H00988578   3.973  -0.960  13.563
  1288G11  C01P88579   4.247  -1.128  13.446
  1288G11  C01R88580   4.510  -1.173  13.349
  1288G11  C00Z88581   4.323  -1.458  13.204
  1288G11  O00088582   4.352  -1.561  13.118
  1288G11  C00M88583   4.643  -1.277  13.171
  1288G11  C00Y88584   4.451  -1.546  13.025
  1288G11  C01388585   4.445  -1.618  12.908
  1288G11  H00188586   4.359  -1.679  12.888
  1288G11  C00Q88587   4.761  -1.353  12.973
  1288G11  C00188588   4.544  -1.601  12.813
  1288G11  C00088589   4.531  -1.668  12.689
  1288G11  H00688590   4.445  -1.729  12.666
  1288G11  C00W88591   4.860  -1.413  12.761
  1288G11  C01G88592   4.624  -1.656  12.593
  1288G11  H00588593   4.604  -1.722  12.510
  1288G11  C01C88594   4.796  -1.696  12.382
  1288G11  H00288595   4.728  -1.779  12.370
  1288G11  C01B88596   4.896  -1.674  12.286
  1288G11  C01D88597   4.935  -1.752  12.167
  1288G11  H00388598   4.887  -1.848  12.149
  1288G11  C01E88599   5.039  -1.710  12.094
  1288G11  H00488600   5.073  -1.762  12.006
  1288G11  O00288601   5.097  -1.584  12.120
  1288G11  C01A88602   4.983  -1.567  12.327
  1288G11  C00V88603   4.968  -1.392  12.671
  1288G11  C01988604   5.083  -1.519  12.238
  1288G11  C02E88605   5.418  -1.088  11.997
  1288G11  C0FX88606   5.471  -1.048  11.875
  1288G11  C0FW88607   5.532  -0.925  11.862
  1288G11  C0GB88608   5.457  -1.133  11.764
  1288G11  C0G388609   5.440  -1.008  12.112
  1288G11  C07H88610   5.505  -0.886  12.096
  1288G11  C0GC88611   5.377  -1.244  11.766
  1288G11  C0G288612   5.510  -1.097  11.641
  1288G11  C0G188613   5.567  -0.974  11.630
  1288G11  C0FB88614   5.757  -0.789  11.373
  1288G11  C0F288615   5.733  -0.596  11.571
  1288G11  C0FY88616   5.580  -0.888  11.738
  1288G11  C0F588617   5.686  -0.548  11.800
  1288G11  C0FV88618   5.550  -0.847  11.972
  1288G11  C07988619   5.642  -0.498  12.034
  1288G11  C07A88620   5.574  -0.441  12.260
  1288G11  C06Y88621   5.463  -0.517  12.502
  1288G11  C07D88622   5.517  -0.804  12.204
  1288G11  C01F88623   5.390  -1.051  12.233
  1288G11  C00A88624   5.274  -1.214  12.369
  1288G11  C00X88625   5.161  -1.278  12.607
  1288G11  C00F88626   5.143  -1.099  12.810
  1288G11  C02988627   5.352  -0.916  12.575
  1288G11  C02588628   5.183  -0.887  12.898
  1288G11  C06U88629   5.367  -0.687  12.649
  1288G11  C02A88630   5.203  -0.660  12.970
  1288G11  C05Y88631   5.284  -0.394  12.929
  1288G11  C05Z88632   5.307  -0.258  12.895
  1288G11  C06088633   5.258  -0.162  12.982
  1288G11  C06288634   5.270  -0.023  12.952
  1288G11  C06T88635   5.401  -0.554  12.621
  1288G11  C06A88636   5.375  -0.223  12.782
  1288G11  C06Z88637   5.489  -0.381  12.475
  1288G11  C06Q88638   5.537  -0.111  12.421
  1288G11  C06888639   5.392  -0.084  12.752
  1288G11  C06788640   5.338   0.013  12.839
  1288G11  C06388641   5.323   0.413  12.703
  1288G11  C06C88642   5.299   0.540  12.641
  1288G11  C06D88643   5.245   0.642  12.713
  1288G11  C06E88644   5.204   0.770  12.666
  1288G11  C07Q88645   5.237   0.795  12.535
  1288G11  C07P88646   5.300   0.698  12.459
  1288G11  C07T88647   5.335   0.725  12.331
  1288G11  C07U88648   5.411   0.637  12.261
  1288G11  C07V88649   5.444   0.670  12.133
  1288G11  C08488650   5.408   0.792  12.076
  1288G11  C08C88651   5.331   0.881  12.150
  1288G11  C08B88652   5.302   1.006  12.098
  1288G11  C08A88653   5.243   1.091  12.184
  1288G11  C08988654   5.195   1.068  12.308
  1288G11  C08888655   5.133   1.168  12.382
  1288G11  C08788656   5.095   1.142  12.514
  1288G11  C08688657   5.134   1.018  12.567
  1288G11  C08X88658   5.098   1.294  12.327
  1288G11  C08T88659   5.127   1.311  12.185
  1288G11  C08D88660   5.231   0.944  12.360
  1288G11  C08U88661   5.198   1.206  12.123
  1288G11  C08V88662   5.226   1.241  11.993
  1288G11  C0CY88663   5.290   1.150  11.911
  1288G11  C0CX88664   5.307   1.194  11.778
  1288G11  C0CW88665   5.373   1.102  11.697
  1288G11  C0CV88666   5.420   0.981  11.750
  1288G11  C0D488667   5.404   0.948  11.889
  1288G11  C0CU88668   5.463   0.881  11.667
  1288G11  C0CT88669   5.466   0.896  11.526
  1288G11  C0CS88670   5.423   1.022  11.473
  1288G11  C0D688671   5.500   0.766  11.728
  1288G11  C0EC88672   5.495   0.732  11.865
  1288G11  C07X88673   5.524   0.607  11.918
  1288G11  C0DL88674   5.535   0.665  11.645
  1288G11  C0DK88675   5.558   0.540  11.693
  1288G11  C0DN88676   5.581   0.460  11.586
  1288G11  C0D888677   5.542   0.667  11.502
  1288G11  C08W88678   5.163   1.356  11.953
  1288G11  C0CQ88679   5.178   1.398  11.818
  1288G11  C09388680   5.326   1.033  11.966
  1288G11  C09288681   5.436   0.827  11.947
  1288G11  C08588682   5.300   0.848  12.281
  1288G11  C07S88683   5.200   0.918  12.489
  1288G11  C06F88684   5.145   0.867  12.751
  1288G11  C07O88685   5.332   0.571  12.510
  1288G11  C07N88686   5.406   0.481  12.441
  1288G11  C05D88687   5.232   0.619  12.847
  1288G11  C05C88688   5.171   0.714  12.928
  1288G11  C05N88689   5.160   0.665  13.052
  1288G11  C05M88690   5.175   0.294  13.136
  1288G11  C05I88691   5.223   0.076  13.050
  1288G11  C06188692   5.199  -0.199  13.098
  1288G11  C02Q88693   5.078  -0.370  13.224
  1288G11  C02O88694   4.890  -0.414  13.439
  1288G11  C03Q88695   5.009  -0.074  13.378
  1288G11  C03O88696   4.927   0.124  13.487
  1288G11  C03L88697   4.690   0.156  13.741
  1288G11  C02S88698   4.757  -0.188  13.608
  1288G11  C02T88699   4.567  -0.254  13.787
  1288G11  C03K88700   4.593   0.120  13.845
  1288G11  C03I88701   4.474  -0.286  13.882
  1288G11  C03G88702   4.287  -0.361  14.086
  1288G11  H00D88703   4.225  -0.389  14.170
  1288G11  C03J88704   4.413   0.036  14.051
  1288G11  C03W88705   4.275   0.221  14.212
  1288G11  C04I88706   4.353   0.399  14.083
  1288G11  C04K88707   4.352   0.658  13.993
  1288G11  C04N88708   4.364   0.782  13.932
  1288G11  C04X88709   4.454   0.932  13.761
  1288G11  C05088710   4.551   1.086  13.585
  1288G11  C05W88711   4.738   0.876  13.526
  1288G11  C05S88712   4.775   1.211  13.186
  1288G11  C05R88713   4.949   0.927  13.315
  1288G11  C05O88714   5.102   0.749  13.144
  1288G11  C05B88715   5.125   0.837  12.883
  1288G11  C05A88716   4.940   1.118  13.024
  1288G11  C07R88717   5.100   0.993  12.699
  1288G11  C08N88718   5.025   1.237  12.589
  1288G11  C08M88719   5.009   1.369  12.540
  1288G11  C08L88720   4.940   1.465  12.617
  1288G11  C09188721   4.826   1.215  13.038
  1288G11  C09K88722   4.629   1.486  12.934
  1288G11  H00M88723   4.548   1.433  12.982
  1288G11  C08K88724   4.897   1.434  12.753
  1288G11  C09J88725   4.630   1.622  12.889
  1288G11  C09I88726   4.533   1.691  12.807
  1288G11  C09L88727   4.398   1.727  12.845
  1288G11  H00N88728   4.355   1.696  12.939
  1288G11  C09Q88729   4.326   1.792  12.751
  1288G11  H00O88730   4.225   1.812  12.783
  1288G11  O00B88731   4.376   1.834  12.624
  1288G11  C09G88732   4.508   1.799  12.585
  1288G11  C09F88733   4.553   1.845  12.463
  1288G11  O00A88734   4.451   1.909  12.404
  1288G11  C09P88735   4.480   1.958  12.288
  1288G11  H00P88736   4.441   2.058  12.277
  1288G11  C09O88737   4.582   1.915  12.199
  1288G11  C09D88738   4.696   1.854  12.261
  1288G11  C09C88739   4.822   1.817  12.195
  1288G11  C09N88740   4.855   1.794  12.058
  1288G11  C09T88741   4.767   1.781  11.950
  1288G11  C09S88742   4.641   1.852  11.953
  1288G11  C0CP88743   4.606   1.854  11.819
  1288G11  C0CN88744   4.705   1.804  11.733
  1288G11  C0CO88745   4.679   1.815  11.600
  1288G11  H01488746   4.745   1.786  11.520
  1288G11  C0CZ88747   4.570   1.888  11.556
  1288G11  H01588748   4.564   1.889  11.449
  1288G11  C0D088749   4.473   1.945  11.644
  1288G11  C0G588750   4.353   2.016  11.610
  1288G11  H01F88751   4.322   2.016  11.506
  1288G11  C0G488752   4.274   2.074  11.704
  1288G11  H01G88753   4.183   2.118  11.667
  1288G11  O00H88754   4.301   2.075  11.839
  1288G11  C0D288755   4.403   1.990  11.872
  1288G11  C09V88756   4.443   1.979  12.009
  1288G11  H00Q88757   4.374   2.029  12.075
  1288G11  C0D188758   4.489   1.927  11.783
  1288G11  C09R88759   4.564   1.915  12.056
  1288G11  C09H88760   4.581   1.722  12.677
  1288G11  C09E88761   4.682   1.818  12.398
  1288G11  C09B88762   4.929   1.771  12.264
  1288G11  C08Z88763   4.915   1.587  12.556
  1288G11  C08O88764   5.050   1.403  12.406
  1288G11  C09A88765   5.033   1.725  12.185
  1288G11  C08S88766   5.100   1.401  12.073
  1288G11  C09988767   4.993   1.745  12.054
  1288G11  C09U88768   4.818   1.756  11.814
  1288G11  C0BO88769   5.071   1.680  11.436
  1288G11  C0CL88770   5.108   1.510  11.770
  1288G11  C0D388771   5.246   1.312  11.727
  1288G11  C0D588772   5.374   1.122  11.560
  1288G11  C0BR88773   5.193   1.473  11.406
  1288G11  C0BQ88774   5.134   1.589  11.351
  1288G11  C0BL88775   5.001   1.810  11.242
  1288G11  C0AF88776   4.974   1.834  10.976
  1288G11  C0BH88777   5.169   1.524  10.994
  1288G11  C0BG88778   5.230   1.433  10.909
  1288G11  C0BD88779   5.131   1.543  10.724
  1288G11  C0AG88780   4.945   1.829  10.846
  1288G11  C0AI88781   4.875   1.960  10.649
  1288G11  C0AV88782   4.949   2.040  10.399
  1288G11  C0BB88783   5.028   1.673  10.395
  1288G11  O00C88784   5.081   1.975  10.202
  1288G11  C0BC88785   5.103   1.613  10.293
  1288G11  C0B988786   5.127   1.556  10.581
  1288G11  O00E88787   5.378   1.319  10.465
  1288G11  C0CA88788   5.432   1.203  10.507
  1288G11  O00F88789   5.488   1.124  10.430
  1288G11  C0BF88790   5.220   1.448  10.774
  1288G11  C0C588791   5.430   1.181  10.647
  1288G11  C0C488792   5.480   1.060  10.699
  1288G11  H01188793   5.522   0.985  10.634
  1288G11  C0C888794   5.295   1.324  10.961
  1288G11  C0C288795   5.473   1.030  10.837
  1288G11  C0C388796   5.530   0.914  10.897
  1288G11  C0DY88797   5.601   0.816  10.829
  1288G11  H01688798   5.636   0.814  10.726
  1288G11  C0DX88799   5.629   0.718  10.932
  1288G11  C0DW88800   5.719   0.611  10.899
  1288G11  C0BY88801   5.356   1.184  11.148
  1288G11  C0DB88802   5.524   0.886  11.032
  1288G11  C0CC88803   5.422   1.043  11.337
  1288G11  C0D788804   5.513   0.794  11.437
  1288G11  C0DZ88805   5.580   0.761  11.067
  1288G11  C0DM88806   5.581   0.536  11.463
  1288G11  C0DQ88807   5.698   0.479  11.120
  1288G11  C0DV88808   5.737   0.500  10.989
  1288G11  C0E088809   5.789   0.579  10.778
  1288G11  C0FO88810   6.048   0.338  10.747
  1288G11  C0E388811   5.907   0.646  10.716
  1288G11  H01788812   5.930   0.749  10.740
  1288G11  C0GV88813   6.159   0.401  10.692
  1288G11  C0ES88814   6.071   0.253  10.857
  1288G11  C0GQ88815   6.435   0.211  10.825
  1288G11  C0FJ88816   6.389  -0.035  11.093
  1288G11  C0ED88817   6.131   0.068  11.076
  1288G11  C0ER88818   6.036  -0.245  11.204
  1288G11  C0EP88819   5.901  -0.171  11.369
  1288G11  C0E688820   5.907   0.156  11.176
  1288G11  C0DE88821   5.707   0.236  11.409
  1288G11  C0EA88822   5.767  -0.096  11.577
  1288G11  C0DF88823   5.626   0.225  11.529
  1288G11  C08088824   5.689   0.081  11.849
  1288G11  C0DO88825   5.610   0.331  11.619
  1288G11  C0DJ88826   5.560   0.510  11.833
  1288G11  C07K88827   5.599   0.210  12.059
  1288G11  C07W88828   5.510   0.577  12.052
  1288G11  C08388829   5.441   0.509  12.310
  1288G11  C07J88830   5.569   0.183  12.199
  1288G11  C06O88831   5.489   0.124  12.468
  1288G11  C06M88832   5.432   0.355  12.495
  1298G11  C07188833   6.387   4.563  10.082
  1298G11  C07L88834   6.424   4.448  10.011
  1298G11  C07M88835   6.429   4.325  10.074
  1298G11  C07Y88836   6.486   4.213  10.010
  1298G11  C08188837   6.540   4.215   9.878
  1298G11  C08288838   6.590   4.100   9.823
  1298G11  C0DI88839   6.644   4.072   9.684
  1298G11  C0DH88840   6.658   4.148   9.567
  1298G11  C0DG88841   6.711   4.073   9.460
  1298G11  C0E988842   6.803   4.102   9.352
  1298G11  C0E888843   6.879   3.972   9.332
  1298G11  C0E788844   6.957   3.930   9.215
  1298G11  C0EB88845   6.939   3.997   9.091
  1298G11  C0EF88846   6.961   3.944   8.954
  1298G11  C0EE88847   6.980   3.814   8.913
  1298G11  C0FD88848   6.905   3.766   8.803
  1298G11  C0FE88849   6.782   3.817   8.755
  1298G11  H01B88850   6.742   3.902   8.808
  1298G11  C0FF88851   6.713   3.759   8.643
  1298G11  H01A88852   6.613   3.795   8.625
  1298G11  C0FG88853   6.767   3.652   8.574
  1298G11  H01888854   6.709   3.602   8.499
  1298G11  C0FH88855   6.891   3.602   8.622
  1298G11  C0FI88856   6.953   3.494   8.553
  1298G11  H01988857   6.905   3.451   8.466
  1298G11  O00K88858   7.077   3.453   8.588
  1298G11  C0FL88859   7.138   3.499   8.701
  1298G11  C0FK88860   7.077   3.602   8.778
  1298G11  C0FM88861   7.132   3.631   8.908
  1298G11  C0FN88862   7.241   3.556   8.951
  1298G11  C0FP88863   7.293   3.452   8.872
  1298G11  C0GO88864   7.391   3.359   8.912
  1298G11  C0GN88865   7.428   3.241   8.851
  1298G11  C0GR88866   7.381   3.227   8.714
  1298G11  C0GS88867   7.418   3.124   8.631
  1298G11  H01Q88868   7.376   3.110   8.533
  1298G11  C0GT88869   7.505   3.025   8.691
  1298G11  H01O88870   7.536   2.939   8.633
  1298G11  C0GU88871   7.547   3.037   8.826
  1298G11  H01P88872   7.620   2.966   8.862
  1298G11  O00L88873   7.291   3.322   8.669
  1298G11  C0GM88874   7.504   3.143   8.911
  1298G11  C0GL88875   7.523   3.150   9.051
  1298G11  H01R88876   7.566   3.061   9.093
  1298G11  C0GK88877   7.492   3.267   9.121
  1298G11  C0GP88878   7.493   3.322   9.259
  1298G11  C0E288879   7.461   3.464   9.246
  1298G11  C0E188880   7.387   3.503   9.363
  1298G11  C0DU88881   7.275   3.585   9.380
  1298G11  C0DT88882   7.220   3.685   9.301
  1298G11  C0E488883   7.231   3.671   9.161
  1298G11  C0E588884   7.134   3.759   9.110
  1298G11  C0DS88885   7.104   3.752   9.332
  1298G11  C0DR88886   7.045   3.719   9.459
  1298G11  C0DD88887   6.935   3.781   9.518
  1298G11  C0DC88888   6.913   3.705   9.641
  1298G11  C0DP88889   7.013   3.593   9.656
  1298G11  C0DA88890   7.018   3.489   9.764
  1298G11  C0D988891   6.933   3.470   9.892
  1298G11  C0CR88892   6.961   3.365   9.989
  1298G11  C0C088893   7.053   3.266   9.957
  1298G11  C0BZ88894   7.092   3.154  10.033
  1298G11  C0C188895   7.190   3.061   9.996
  1298G11  C0C788896   7.220   2.948  10.082
  1298G11  C0C688897   7.330   2.858  10.055
  1298G11  C0C988898   7.353   2.745  10.134
  1298G11  C0B888899   7.468   2.666  10.112
  1298G11  C0B788900   7.497   2.551  10.192
  1298G11  C0B688901   7.612   2.457  10.201
  1298G11  C0B588902   7.750   2.480  10.169
  1298G11  H00Z88903   7.790   2.555  10.102
  1298G11  C0B488904   7.824   2.391  10.261
  1298G11  H01088905   7.931   2.381  10.277
  1298G11  C0B388906   7.732   2.310  10.336
  1298G11  C0AP88907   7.704   2.240  10.461
  1298G11  C0AQ88908   7.563   2.247  10.471
  1298G11  C0AR88909   7.493   2.253  10.595
  1298G11  C0AS88910   7.374   2.312  10.590
  1298G11  C0AT88911   7.332   2.395  10.490
  1298G11  C0BA88912   7.412   2.413  10.380
  1298G11  C0AU88913   7.222   2.479  10.513
  1298G11  C0BE88914   7.205   2.587  10.431
  1298G11  C0BI88915   7.114   2.686  10.471
  1298G11  C0BJ88916   7.044   2.675  10.590
  1298G11  C0BK88917   6.957   2.777  10.630
  1298G11  C0BW88918   6.939   2.890  10.555
  1298G11  C0BV88919   7.012   2.898  10.435
  1298G11  C0BU88920   6.989   3.011  10.357
  1298G11  C0BX88921   7.058   3.027  10.237
  1298G11  C0BT88922   6.905   3.114  10.403
  1298G11  C0CD88923   6.878   3.224  10.325
  1298G11  C0CB88924   6.936   3.240  10.200
  1298G11  C0CE88925   6.792   3.319  10.376
  1298G11  C0CK88926   6.742   3.313  10.501
  1298G11  C0BS88927   6.769   3.204  10.585
  1298G11  C0CJ88928   6.705   3.192  10.714
  1298G11  C0BP88929   6.713   3.073  10.782
  1298G11  C0CI88930   6.650   3.051  10.903
  1298G11  C0CH88931   6.623   2.918  10.937
  1298G11  H01288932   6.556   2.915  11.021
  1298G11  C0BN88933   6.717   2.821  10.893
  1298G11  C0CG88934   6.728   2.705  10.973
  1298G11  C0CF88935   6.649   2.682  11.089
  1298G11  H01388936   6.562   2.743  11.109
  1298G11  O00G88937   6.681   2.585  11.178
  1298G11  C0AA88938   6.792   2.517  11.156
  1298G11  C0A988939   6.830   2.429  11.257
  1298G11  H00U88940   6.770   2.401  11.342
  1298G11  C0A888941   6.953   2.365  11.255
  1298G11  H00V88942   6.982   2.317  11.347
  1298G11  C0A788943   7.042   2.372  11.139
  1298G11  C0A688944   6.994   2.450  11.027
  1298G11  C0A588945   7.053   2.461  10.900
  1298G11  C0A488946   7.161   2.375  10.861
  1298G11  C0A388947   7.256   2.283  10.931
  1298G11  C0A288948   7.272   2.268  11.074
  1298G11  C0A188949   7.391   2.230  11.137
  1298G11  C0A088950   7.528   2.200  11.093
  1298G11  C09Z88951   7.614   2.172  11.204
  1298G11  C09Y88952   7.751   2.158  11.177
  1298G11  H00Y88953   7.814   2.126  11.258
  1298G11  C09X88954   7.807   2.158  11.049
  1298G11  C09W88955   7.944   2.127  11.033
  1298G11  H00R88956   8.002   2.115  11.123
  1298G11  C0AX88957   7.997   2.118  10.910
  1298G11  H00S88958   8.098   2.085  10.892
  1298G11  C0AW88959   7.915   2.142  10.794
  1298G11  H00T88960   7.967   2.141  10.699
  1298G11  C0AN88961   7.780   2.178  10.806
  1298G11  C0AO88962   7.701   2.206  10.698
  1298G11  C0AM88963   7.721   2.181  10.935
  1298G11  C0B288964   7.578   2.155  11.348
  1298G11  O00D88965   7.664   2.122  11.427
  1298G11  C0B188966   7.447   2.184  11.380
  1298G11  H00W88967   7.425   2.193  11.486
  1298G11  C0AL88968   7.580   2.204  10.955
  1298G11  C0AK88969   7.504   2.225  10.839
  1298G11  C0B088970   7.358   2.223  11.273
  1298G11  C0AZ88971   7.221   2.269  11.296
  1298G11  H00X88972   7.179   2.281  11.395
  1298G11  C0AJ88973   7.359   2.255  10.834
  1298G11  C0AH88974   7.187   2.371  10.722
  1298G11  C0AE88975   7.013   2.556  10.798
  1298G11  C0AD88976   6.915   2.648  10.832
  1298G11  C0AY88977   7.170   2.306  11.166
  1298G11  C0AB88978   6.875   2.527  11.038
  1298G11  C0AC88979   6.838   2.624  10.945
  1298G11  C0BM88980   6.800   2.852  10.788
  1298G11  C0CM88981   6.628   3.161  10.986
  1298G11  C09M88982   6.580   3.274  10.908
  1298G11  C09888983   6.473   3.349  10.964
  1298G11  C08R88984   6.419   3.482  10.927
  1298G11  C08Q88985   6.319   3.528  11.019
  1298G11  C08P88986   6.265   3.655  11.068
  1298G11  C08Y88987   6.201   3.649  11.194
  1298G11  C09788988   6.220   3.540  11.281
  1298G11  C09688989   6.233   3.572  11.410
  1298G11  C09088990   6.189   3.707  11.413
  1298G11  C09588991   6.202   3.796  11.522
  1298G11  C09488992   6.138   3.925  11.535
  1298G11  C08J88993   6.114   4.014  11.427
  1298G11  C08I88994   6.144   4.148  11.469
  1298G11  C08H88995   6.162   4.228  11.348
  1298G11  C08G88996   6.174   4.142  11.233
  1298G11  C08F88997   6.188   4.145  11.088
  1298G11  C08E88998   6.169   4.266  11.017
  1298G11  C05988999   6.111   4.385  11.071
  1298G11  C05889000   6.080   4.490  10.984
  1298G11  C05789001   6.032   4.616  11.024
  1298G11  C05689002   5.997   4.627  11.161
  1298G11  C05589003   6.005   4.520  11.241
  1298G11  C05489004   5.998   4.568  11.374
  1298G11  C05389005   6.014   4.715  11.373
  1298G11  C05289006   6.041   4.805  11.480
  1298G11  C05189007   6.082   4.757  11.608
  1298G11  C05U89008   6.098   4.620  11.652
  1298G11  C05T89009   6.090   4.492  11.586
  1298G11  C06K89010   6.075   4.395  11.690
  1298G11  H00J89011   6.049   4.291  11.679
  1298G11  C06L89012   6.100   4.453  11.818
  1298G11  H00I89013   6.102   4.418  11.920
  1298G11  C05V89014   6.117   4.592  11.790
  1298G11  C06J89015   6.143   4.687  11.883
  1298G11  H00K89016   6.153   4.656  11.986
  1298G11  C05X89017   6.144   4.821  11.845
  1298G11  C06I89018   6.166   4.931  11.935
  1298G11  H00L89019   6.185   4.898  12.036
  1298G11  C04Z89020   6.171   5.067  11.896
  1298G11  C06H89021   6.200   5.168  11.993
  1298G11  H00H89022   6.229   5.140  12.093
  1298G11  C04Y89023   6.206   5.304  11.958
  1298G11  C06G89024   6.235   5.405  12.055
  1298G11  O00989025   6.278   5.379  12.167
  1298G11  O00889026   6.240   5.537  12.013
  1298G11  C04P89027   6.220   5.575  11.882
  1298G11  C04J89028   6.226   5.714  11.830
  1298G11  C04Q89029   6.240   5.837  11.900
  1298G11  H00E89030   6.239   5.836  12.008
  1298G11  C04M89031   6.261   5.959  11.837
  1298G11  C04R89032   6.282   6.083  11.899
  1298G11  H00F89033   6.286   6.077  12.007
  1298G11  C04S89034   6.312   6.196  11.827
  1298G11  H00G89035   6.317   6.291  11.878
  1298G11  O00789036   6.318   6.204  11.691
  1298G11  C03V89037   6.295   6.082  11.628
  1298G11  C03U89038   6.300   6.079  11.492
  1298G11  O00689039   6.336   6.200  11.434
  1298G11  C03F89040   6.371   6.203  11.300
  1298G11  C03E89041   6.337   6.094  11.215
  1298G11  C03D89042   6.281   5.983  11.270
  1298G11  C03C89043   6.249   5.874  11.191
  1298G11  C03B89044   6.264   5.899  11.051
  1298G11  C03A89045   6.225   5.798  10.961
  1298G11  C03989046   6.176   5.669  11.009
  1298G11  C03889047   6.151   5.595  10.882
  1298G11  C03789048   6.172   5.694  10.778
  1298G11  C03689049   6.167   5.668  10.645
  1298G11  C02R89050   6.210   5.737  10.532
  1298G11  C03589051   6.188   5.642  10.432
  1298G11  C03R89052   6.144   5.521  10.483
  1298G11  C03S89053   6.170   5.397  10.419
  1298G11  C04989054   6.151   5.279  10.490
  1298G11  C04889055   6.113   5.296  10.625
  1298G11  C03P89056   6.120   5.425  10.699
  1298G11  C04789057   6.097   5.171  10.687
  1298G11  C04689058   6.061   5.159  10.821
  1298G11  C04589059   6.042   5.246  10.931
  1298G11  C03T89060   6.076   5.376  10.946
  1298G11  C04489061   6.068   5.403  11.087
  1298G11  C04389062   6.003   5.299  11.146
  1298G11  C04289063   6.025   5.295  11.286
  1298G11  C04189064   6.085   5.433  11.306
  1298G11  C04089065   6.133   5.483  11.434
  1298G11  C03Z89066   6.172   5.621  11.462
  1298G11  C04H89067   6.191   5.621  11.602
  1298G11  C04G89068   6.173   5.494  11.652
  1298G11  C03N89069   6.198   5.741  11.387
  1298G11  C03Y89070   6.235   5.852  11.472
  1298G11  C03X89071   6.241   5.849  11.617
  1298G11  C04F89072   6.141   5.406  11.556
  1298G11  C04E89073   6.121   5.272  11.592
  1298G11  C04O89074   6.142   5.238  11.727
  1298G11  C04D89075   6.077   5.167  11.503
  1298G11  C04V89076   6.066   5.034  11.550
  1298G11  C04W89077   6.117   4.990  11.678
  1298G11  C04C89078   6.020   5.174  11.375
  1298G11  C04L89079   5.995   5.037  11.340
  1298G11  C04U89080   5.981   4.993  11.204
  1298G11  C05Q89081   5.989   4.862  11.167
  1298G11  C05P89082   5.997   4.851  11.027
  1298G11  C04T89083   6.003   4.980  10.975
  1298G11  C04B89084   5.990   5.062  11.080
  1298G11  C03M89085   6.113   5.503  11.181
  1298G11  C04A89086   6.010   5.198  11.055
  1298G11  C05H89087   6.034   5.025  10.840
  1298G11  C05G89088   6.069   4.951  10.725
  1298G11  C05F89089   6.061   4.811  10.705
  1298G11  C05E89090   6.126   4.740  10.596
  1298G11  C05L89091   6.184   4.774  10.469
  1298G11  C05K89092   6.188   4.906  10.416
  1298G11  C05J89093   6.153   5.031  10.484
  1298G11  C06689094   6.245   4.917  10.289
  1298G11  C06589095   6.292   4.800  10.221
  1298G11  C06489096   6.294   4.669  10.280
  1298G11  C06N89097   6.344   4.803  10.091
  1298G11  C06989098   6.357   4.927  10.031
  1298G11  C06P89099   6.412   4.936   9.898
  1298G11  C06R89100   6.443   5.062   9.844
  1298G11  C06B89101   6.418   5.181   9.912
  1298G11  C06S89102   6.472   5.300   9.873
  1298G11  C02G89103   6.444   5.413   9.944
  1298G11  C02F89104   6.511   5.533   9.908
  1298G11  C02789105   6.603   5.538   9.803
  1298G11  C02689106   6.668   5.652   9.774
  1298G11  C00E89107   6.760   5.656   9.672
  1298G11  C00D89108   6.828   5.775   9.642
  1298G11  C00C89109   6.922   5.768   9.540
  1298G11  C00B89110   6.948   5.658   9.466
  1298G11  C01589111   6.884   5.542   9.499
  1298G11  C07F89112   6.912   5.424   9.431
  1298G11  C07E89113   6.842   5.307   9.455
  1298G11  C06W89114   6.742   5.309   9.551
  1298G11  C06V89115   6.717   5.423   9.626
  1298G11  C06X89116   6.680   5.189   9.587
  1298G11  C07B89117   6.706   5.077   9.511
  1298G11  C07C89118   6.794   5.083   9.404
  1298G11  C0FU89119   6.828   4.962   9.340
  1298G11  C0F789120   6.911   4.968   9.230
  1298G11  C0F689121   6.936   4.858   9.151
  1298G11  C0F889122   7.009   4.867   9.035
  1298G11  C0F989123   7.029   4.751   8.959
  1298G11  C0FA89124   7.096   4.761   8.841
  1298G11  C0FZ89125   7.155   4.886   8.804
  1298G11  C0G089126   7.226   4.895   8.682
  1298G11  C0GD89127   7.233   4.787   8.593
  1298G11  C0FC89128   7.172   4.667   8.630
  1298G11  C0GH89129   7.163   4.560   8.542
  1298G11  C0EY89130   7.111   4.433   8.579
  1298G11  C0EX89131   7.109   4.317   8.492
  1298G11  C0EW89132   7.058   4.199   8.539
  1298G11  C0FR89133   7.048   4.084   8.450
  1298G11  H01D89134   7.002   3.989   8.474
  1298G11  C0FS89135   7.101   4.093   8.318
  1298G11  H01C89136   7.103   4.006   8.253
  1298G11  C0GJ89137   7.149   4.217   8.272
  1298G11  H01N89138   7.182   4.227   8.170
  1298G11  C0EV89139   7.017   4.195   8.669
  1298G11  C0FT89140   6.993   4.064   8.726
  1298G11  H01E89141   7.020   3.970   8.679
  1298G11  C0EU89142   7.007   4.304   8.750
  1298G11  C0ET89143   6.956   4.292   8.879
  1298G11  C0EI89144   6.946   4.397   8.966
  1298G11  C0F189145   6.991   4.518   8.917
  1298G11  C0F089146   7.046   4.533   8.791
  1298G11  C0EH89147   6.898   4.377   9.101
  1298G11  C0EG89148   6.877   4.246   9.163
  1298G11  C0EJ89149   6.868   4.488   9.174
  1298G11  C0F389150   6.913   4.616   9.126
  1298G11  C0EK89151   6.801   4.479   9.293
  1298G11  C0EL89152   6.767   4.353   9.358
  1298G11  C0EM89153   6.694   4.372   9.478
  1298G11  C0EN89154   6.649   4.495   9.515
  1298G11  C07I89155   6.577   4.487   9.631
  1298G11  C07489156   6.533   4.601   9.698
  1298G11  C07389157   6.482   4.583   9.828
  1298G11  C07289158   6.435   4.700   9.894
  1298G11  C07589159   6.558   4.721   9.641
  1298G11  C07689160   6.634   4.728   9.525
  1298G11  C07889161   6.678   4.843   9.476
  1298G11  C07G89162   6.524   4.834   9.713
  1298G11  C07089163   6.568   4.951   9.662
  1298G11  C07Z89164   6.586   4.356   9.684
  1298G11  C07789165   6.679   4.614   9.456
  1298G11  C0EO89166   6.764   4.606   9.351
  1298G11  C0F489167   6.805   4.730   9.304
  1298G11  C0EQ89168   6.938   4.165   8.935
  1298G11  C0FQ89169   7.151   4.334   8.358
  1298G11  C0GI89170   7.209   4.453   8.331
  1298G11  H01L89171   7.247   4.465   8.231
  1298G11  C0EZ89172   7.053   4.425   8.708
  1298G11  C0GG89173   7.220   4.566   8.413
  1298G11  C0GF89174   7.285   4.684   8.378
  1298G11  H01M89175   7.343   4.686   8.287
  1298G11  C0GE89176   7.295   4.795   8.465
  1298G11  H01K89177   7.356   4.875   8.425
  1298G11  O00J89178   7.287   5.017   8.650
  1298G11  C0GA89179   7.299   5.110   8.749
  1298G11  C0G989180   7.386   5.217   8.727
  1298G11  H01H89181   7.453   5.213   8.642
  1298G11  C0G889182   7.396   5.321   8.819
  1298G11  C0G789183   7.484   5.433   8.807
  1298G11  H01I89184   7.548   5.449   8.721
  1298G11  O00I89185   7.496   5.529   8.902
  1298G11  C0G689186   7.387   5.542   8.990
  1298G11  H01J89187   7.365   5.642   9.022
  1298G11  C02D89188   7.296   5.434   9.014
  1298G11  C02C89189   7.194   5.439   9.113
  1298G11  C01789190   7.178   5.553   9.204
  1298G11  C01689191   7.074   5.551   9.298
  1298G11  O00189192   7.258   5.660   9.194
  1298G11  C01889193   7.245   5.775   9.267
  1298G11  C00989194   7.141   5.777   9.356
  1298G11  C00889195   7.112   5.892   9.436
  1298G11  C00789196   7.167   6.017   9.468
  1298G11  C00689197   7.293   6.056   9.432
  1298G11  C00589198   7.359   6.175   9.474
  1298G11  C00489199   7.330   6.269   9.579
  1298G11  C00389200   7.218   6.281   9.672
  1298G11  C00289201   7.227   6.376   9.780
  1298G11  C00P89202   7.126   6.377   9.881
  1298G11  C00O89203   7.133   6.466   9.995
  1298G11  C00N89204   7.046   6.465  10.098
  1298G11  C01089205   7.052   6.548  10.205
  1298G11  C01189206   6.960   6.550  10.313
  1298G11  C01Q89207   6.978   6.627  10.431
  1298G11  C01U89208   7.084   6.721  10.434
  1298G11  C01289209   7.166   6.721  10.314
  1298G11  H00089210   7.245   6.795  10.304
  1298G11  C01V89211   7.094   6.793  10.555
  1298G11  H00789212   7.160   6.879  10.548
  1298G11  O00589213   7.012   6.782  10.666
  1298G11  C01W89214   6.910   6.696  10.658
  1298G11  C03189215   6.818   6.681  10.764
  1298G11  C03289216   6.694   6.605  10.741
  1298G11  H00A89217   6.616   6.595  10.815
  1298G11  C03389218   6.679   6.542  10.617
  1298G11  H00B89219   6.576   6.511  10.606
  1298G11  C01O89220   6.776   6.540  10.519
  1298G11  C01N89221   6.768   6.453  10.413
  1298G11  C01M89222   6.655   6.359  10.399
  1298G11  C01L89223   6.568   6.277  10.490
  1298G11  C01K89224   6.493   6.194  10.405
  1298G11  C01Y89225   6.417   6.080  10.449
  1298G11  C02I89226   6.392   6.063  10.578
  1298G11  C02N89227   6.317   5.946  10.616
  1298G11  C02M89228   6.297   5.925  10.756
  1298G11  C02L89229   6.345   6.019  10.851
  1298G11  C02K89230   6.430   6.124  10.806
  1298G11  C02U89231   6.495   6.205  10.904
  1298G11  C02V89232   6.452   6.202  11.032
  1298G11  C03H89233   6.489   6.311  11.122
  1298G11  H00C89234   6.543   6.399  11.091
  1298G11  C02W89235   6.621   6.258  10.875
  1298G11  C02X89236   6.647   6.268  10.743
  1298G11  C02Y89237   6.784   6.314  10.744
  1298G11  H00889238   6.856   6.344  10.669
  1298G11  C02Z89239   6.824   6.327  10.888
  1298G11  O00489240   6.935   6.356  10.924
  1298G11  O00389241   6.713   6.304  10.961
  1298G11  C02J89242   6.462   6.143  10.668
  1298G11  C01Z89243   6.390   5.986  10.344
  1298G11  C02089244   6.458   5.990  10.226
  1298G11  C01I89245   6.533   6.099  10.192
  1298G11  C01H89246   6.632   6.097  10.092
  1298G11  C00K89247   6.723   6.199  10.081
  1298G11  C01S89248   6.738   6.294  10.181
  1298G11  C01489249   6.848   6.377  10.193
  1298G11  C00J89250   6.825   6.197   9.989
  1298G11  C00I89251   6.821   6.095   9.902
  1298G11  C00H89252   6.728   5.988   9.913
  1298G11  C00G89253   6.731   5.881   9.829
  1298G11  C00S89254   6.907   6.098   9.790
  1298G11  C00T89255   6.899   5.990   9.708
  1298G11  C00U89256   6.998   5.988   9.602
  1298G11  C00R89257   7.016   6.186   9.787
  1298G11  C00L89258   6.930   6.288   9.987
  1298G11  C02889259   6.637   5.989  10.010
  1298G11  C02389260   6.553   5.879  10.034
  1298G11  C02489261   6.564   5.763   9.959
  1298G11  C02189262   6.467   5.877  10.144
  1298G11  C02289263   6.397   5.764  10.174
  1298G11  C02H89264   6.400   5.649  10.090
  1298G11  C03089265   6.332   5.530  10.124
  1298G11  C03489266   6.261   5.529  10.237
  1298G11  C02P89267   6.321   5.760  10.289
  1298G11  C02B89268   6.327   5.872  10.383
  1298G11  C01J89269   6.534   6.208  10.275
  1298G11  C01X89270   6.564   6.234  10.626
  1298G11  C01T89271   6.634   6.299  10.274
  1298G11  H00989272   6.833   6.735  10.856
  1298G11  C01P89273   6.885   6.623  10.535
  1298G11  C01R89274   6.857   6.461  10.307
  1298G11  C00Z89275   7.157   6.636  10.209
  1298G11  O00089276   7.250   6.644  10.104
  1298G11  C00M89277   6.944   6.374  10.091
  1298G11  C00Y89278   7.234   6.567   9.994
  1298G11  C01389279   7.324   6.571   9.889
  1298G11  H00189280   7.395   6.653   9.891
  1298G11  C00Q89281   7.028   6.281   9.885
  1298G11  C00189282   7.328   6.477   9.784
  1298G11  C00089283   7.422   6.473   9.688
  1298G11  H00689284   7.508   6.538   9.691
  1298G11  C00W89285   7.113   6.187   9.680
  1298G11  C01G89286   7.429   6.369   9.596
  1298G11  H00589287   7.518   6.379   9.535
  1298G11  C01C89288   7.477   6.192   9.396
  1298G11  H00289289   7.559   6.262   9.400
  1298G11  C01B89290   7.477   6.076   9.307
  1298G11  C01D89291   7.580   6.038   9.211
  1298G11  H00389292   7.669   6.093   9.186
  1298G11  C01E89293   7.553   5.927   9.136
  1298G11  H00489294   7.626   5.888   9.066
  1298G11  O00289295   7.448   5.839   9.163
  1298G11  C01A89296   7.370   5.991   9.325
  1298G11  C00V89297   7.101   6.075   9.581
  1298G11  C01989298   7.352   5.869   9.256
  1298G11  C02E89299   7.116   5.325   9.137
  1298G11  C0FX89300   7.131   5.212   9.056
  1298G11  C0FW89301   7.059   5.096   9.088
  1298G11  C0GB89302   7.222   5.214   8.951
  1298G11  C0G389303   7.026   5.321   9.247
  1298G11  C07H89304   6.958   5.204   9.273
  1298G11  C0GC89305   7.304   5.323   8.927
  1298G11  C0G289306   7.219   5.107   8.862
  1298G11  C0G189307   7.150   4.994   8.887
  1298G11  C0FB89308   7.103   4.654   8.754
  1298G11  C0F289309   6.978   4.627   8.999
  1298G11  C0FY89310   7.068   4.988   8.999
  1298G11  C0F589311   6.890   4.733   9.194
  1298G11  C0FV89312   6.971   5.091   9.196
  1298G11  C07989313   6.767   4.846   9.367
  1298G11  C07A89314   6.648   4.957   9.548
  1298G11  C06Y89315   6.585   5.187   9.688
  1298G11  C07D89316   6.867   5.195   9.376
  1298G11  C01F89317   7.003   5.436   9.324
  1298G11  C00A89318   7.053   5.666   9.372
  1298G11  C00X89319   7.010   5.879   9.525
  1298G11  C00F89320   6.819   5.886   9.724
  1298G11  C02989321   6.783   5.541   9.599
  1298G11  C02589322   6.648   5.768   9.851
  1298G11  C06U89323   6.626   5.421   9.733
  1298G11  C02A89324   6.490   5.648   9.984
  1298G11  C05Y89325   6.352   5.414  10.051
  1298G11  C05Z89326   6.309   5.287  10.101
  1298G11  C06089327   6.243   5.279  10.225
  1298G11  C06289328   6.216   5.158  10.288
  1298G11  C06T89329   6.560   5.304   9.761
  1298G11  C06A89330   6.345   5.171  10.035
  1298G11  C06Z89331   6.529   5.070   9.735
  1298G11  C06Q89332   6.454   4.823   9.833
  1298G11  C06889333   6.317   5.043  10.096
  1298G11  C06789334   6.259   5.044  10.225
  1298G11  C06389335   6.237   4.655  10.403
  1298G11  C06C89336   6.241   4.523  10.458
  1298G11  C06D89337   6.193   4.503  10.585
  1298G11  C06E89338   6.205   4.390  10.665
  1298G11  C07Q89339   6.261   4.283  10.601
  1298G11  C07P89340   6.295   4.291  10.467
  1298G11  C07T89341   6.348   4.183  10.405
  1298G11  C07U89342   6.383   4.191  10.270
  1298G11  C07V89343   6.444   4.082  10.211
  1298G11  C08489344   6.464   3.963  10.284
  1298G11  C08C89345   6.429   3.957  10.415
  1298G11  C08B89346   6.452   3.844  10.487
  1298G11  C08A89347   6.418   3.844  10.618
  1298G11  C08989348   6.351   3.940  10.686
  1298G11  C08889349   6.316   3.925  10.822
  1298G11  C08789350   6.264   4.037  10.884
  1298G11  C08689351   6.242   4.153  10.811
  1298G11  C08X89352   6.320   3.805  10.889
  1298G11  C08T89353   6.408   3.701  10.822
  1298G11  C08D89354   6.332   4.054  10.614
  1298G11  C08U89355   6.453   3.731  10.695
  1298G11  C08V89356   6.512   3.626  10.635
  1298G11  C0CY89357   6.559   3.627  10.508
  1298G11  C0CX89358   6.628   3.521  10.464
  1298G11  C0CW89359   6.678   3.529  10.330
  1298G11  C0CV89360   6.647   3.639  10.254
  1298G11  C0D489361   6.568   3.745  10.302
  1298G11  C0CU89362   6.698   3.652  10.126
  1298G11  C0CT89363   6.786   3.551  10.073
  1298G11  C0CS89364   6.814   3.442  10.158
  1298G11  C0D689365   6.664   3.765  10.058
  1298G11  C0EC89366   6.584   3.868  10.106
  1298G11  C07X89367   6.559   3.981  10.029
  1298G11  C0DL89368   6.705   3.768   9.926
  1298G11  C0DK89369   6.672   3.876   9.849
  1298G11  C0DN89370   6.731   3.856   9.733
  1298G11  C0D889371   6.792   3.678   9.865
  1298G11  C08W89372   6.542   3.527  10.726
  1298G11  C0CQ89373   6.609   3.407  10.685
  1298G11  C09389374   6.527   3.738  10.433
  1298G11  C09289375   6.541   3.860  10.233
  1298G11  C08589376   6.368   4.064  10.480
  1298G11  C07S89377   6.276   4.164  10.674
  1298G11  C06F89378   6.166   4.378  10.794
  1298G11  C07O89379   6.289   4.410  10.397
  1298G11  C07N89380   6.334   4.425  10.271
  1298G11  C05D89381   6.121   4.608  10.641
  1298G11  C05C89382   6.079   4.593  10.769
  1298G11  C05N89383   6.040   4.717  10.808
  1298G11  C05M89384   6.108   5.041  10.622
  1298G11  C05I89385   6.170   5.153  10.423
  1298G11  C06189386   6.223   5.401  10.289
  1298G11  C02Q89387   6.261   5.643  10.312
  1298G11  C02O89388   6.283   5.855  10.515
  1298G11  C03Q89389   6.138   5.534  10.619
  1298G11  C03O89390   6.117   5.460  10.841
  1298G11  C03L89391   6.164   5.638  11.153
  1298G11  C02S89392   6.232   5.808  10.819
  1298G11  C02T89393   6.326   6.004  10.990
  1298G11  C03K89394   6.205   5.746  11.246
  1298G11  C03I89395   6.370   6.102  11.081
  1298G11  C03G89396   6.448   6.312  11.255
  1298G11  H00D89397   6.457   6.395  11.323
  1298G11  C03J89398   6.270   5.968  11.408
  1298G11  C03W89399   6.270   5.963  11.696
  1298G11  C04I89400   6.222   5.735  11.689
  1298G11  C04K89401   6.184   5.475  11.791
  1298G11  C04N89402   6.174   5.338  11.826
  1298G11  C04X89403   6.141   5.098  11.765
  1298G11  C05089404   6.121   4.851  11.710
  1298G11  C05W89405   6.032   4.945  11.452
  1298G11  C05S89406   6.074   4.469  11.441
  1298G11  C05R89407   5.991   4.742  11.237
  1298G11  C05O89408   6.013   4.732  10.952
  1298G11  C05B89409   6.107   4.482  10.854
  1298G11  C05A89410   6.080   4.411  11.210
  1298G11  C07R89411   6.186   4.262  10.871
  1298G11  C08N89412   6.222   4.025  11.021
  1298G11  C08M89413   6.224   3.901  11.085
  1298G11  C08L89414   6.185   3.890  11.221
  1298G11  C09189415   6.122   4.367  11.339
  1298G11  C09K89416   6.230   4.135  11.586
  1298G11  H00M89417   6.312   4.203  11.604
  1298G11  C08K89418   6.162   4.008  11.293
  1298G11  C09J89419   6.214   3.998  11.635
  1298G11  C09I89420   6.291   3.900  11.706
  1298G11  C09L89421   6.363   3.913  11.824
  1298G11  H00N89422   6.377   4.008  11.873
  1298G11  C09Q89423   6.416   3.800  11.871
  1298G11  H00O89424   6.487   3.814  11.951
  1298G11  O00B89425   6.399   3.672  11.814
  1298G11  C09G89426   6.337   3.655  11.692
  1298G11  C09F89427   6.354   3.528  11.633
  1298G11  O00A89428   6.418   3.442  11.716
  1298G11  C09P89429   6.432   3.317  11.675
  1298G11  H00P89430   6.504   3.258  11.729
  1298G11  C09O89431   6.431   3.279  11.531
  1298G11  C09D89432   6.375   3.375  11.441
  1298G11  C09C89433   6.361   3.354  11.303
  1298G11  C09N89434   6.435   3.277  11.201
  1298G11  C09T89435   6.554   3.211  11.236
  1298G11  C09S89436   6.553   3.143  11.364
  1298G11  C0CP89437   6.633   3.037  11.332
  1298G11  C0CN89438   6.685   3.033  11.202
  1298G11  C0CO89439   6.786   2.941  11.176
  1298G11  H01489440   6.847   2.946  11.088
  1298G11  C0CZ89441   6.807   2.844  11.271
  1298G11  H01589442   6.892   2.780  11.251
  1298G11  C0D089443   6.734   2.831  11.390
  1298G11  C0G589444   6.748   2.724  11.486
  1298G11  H01F89445   6.812   2.639  11.467
  1298G11  C0G489446   6.668   2.722  11.596
  1298G11  H01G89447   6.670   2.634  11.657
  1298G11  O00H89448   6.587   2.824  11.642
  1298G11  C0D289449   6.587   2.932  11.556
  1298G11  C09V89450   6.507   3.049  11.585
  1298G11  H00Q89451   6.460   3.043  11.682
  1298G11  C0D189452   6.649   2.937  11.434
  1298G11  C09R89453   6.494   3.155  11.491
  1298G11  C09H89454   6.276   3.774  11.641
  1298G11  C09E89455   6.313   3.493  11.498
  1298G11  C09B89456   6.273   3.430  11.232
  1298G11  C08Z89457   6.188   3.756  11.277
  1298G11  C08O89458   6.265   3.790  11.015
  1298G11  C09A89459   6.295   3.413  11.096
  1298G11  C08S89460   6.474   3.573  10.843
  1298G11  C09989461   6.388   3.312  11.072
  1298G11  C09U89462   6.629   3.142  11.132
  1298G11  C0BO89463   6.787   2.971  10.722
  1298G11  C0CL89464   6.635   3.295  10.772
  1298G11  C0D389465   6.657   3.413  10.553
  1298G11  C0D589466   6.766   3.427  10.287
  1298G11  C0BR89467   6.844   3.101  10.534
  1298G11  C0BQ89468   6.853   2.986  10.602
  1298G11  C0BL89469   6.891   2.758  10.748
  1298G11  C0AF89470   7.063   2.566  10.673
  1298G11  C0BH89471   7.099   2.800  10.391
  1298G11  C0BG89472   7.171   2.812  10.273
  1298G11  C0BD89473   7.290   2.604  10.314
  1298G11  C0AG89474   7.157   2.475  10.636
  1298G11  C0AI89475   7.309   2.311  10.710
  1298G11  C0AV89476   7.561   2.229  10.709
  1298G11  C0BB89477   7.511   2.320  10.363
  1298G11  O00C89478   7.770   2.210  10.578
  1298G11  C0BC89479   7.607   2.340  10.276
  1298G11  C0B989480   7.392   2.515  10.286
  1298G11  O00E89481   7.549   2.697  10.006
  1298G11  C0CA89482   7.529   2.795   9.919
  1298G11  O00F89483   7.606   2.803   9.824
  1298G11  C0BF89484   7.273   2.721  10.242
  1298G11  C0C589485   7.414   2.879   9.944
  1298G11  C0C489486   7.380   2.992   9.857
  1298G11  H01189487   7.445   3.013   9.773
  1298G11  C0C889488   7.148   2.927  10.198
  1298G11  C0C289489   7.270   3.078   9.887
  1298G11  C0C389490   7.225   3.188   9.806
  1298G11  C0DY89491   7.292   3.233   9.691
  1298G11  H01689492   7.371   3.190   9.633
  1298G11  C0DX89493   7.227   3.351   9.656
  1298G11  C0DW89494   7.268   3.419   9.538
  1298G11  C0BY89495   7.025   3.140  10.155
  1298G11  C0DB89496   7.126   3.280   9.839
  1298G11  C0CC89497   6.904   3.351  10.116
  1298G11  C0D789498   6.841   3.563   9.942
  1298G11  C0DZ89499   7.117   3.389   9.750
  1298G11  C0DM89500   6.816   3.743   9.742
  1298G11  C0DQ89501   7.093   3.610   9.542
  1298G11  C0DV89502   7.208   3.541   9.495
  1298G11  C0E089503   7.380   3.397   9.452
  1298G11  C0FO89504   7.394   3.479   9.125
  1298G11  C0E389505   7.437   3.277   9.390
  1298G11  H01789506   7.444   3.173   9.417
  1298G11  C0GV89507   7.438   3.377   9.044
  1298G11  C0ES89508   7.294   3.571   9.079
  1298G11  C0GQ89509   7.248   3.428   8.748
  1298G11  C0FJ89510   6.959   3.658   8.736
  1298G11  C0ED89511   7.082   3.742   8.977
  1298G11  C0ER89512   6.963   4.055   8.860
  1298G11  C0EP89513   6.917   4.143   9.071
  1298G11  C0E689514   7.059   3.818   9.216
  1298G11  C0DE89515   6.858   3.893   9.454
  1298G11  C0EA89516   6.812   4.236   9.289
  1298G11  C0DF89517   6.740   3.949   9.506
  1298G11  C08089518   6.642   4.283   9.575
  1298G11  C0DO89519   6.708   3.953   9.646
  1298G11  C0DJ89520   6.604   3.988   9.901
  1298G11  C07K89521   6.534   4.342   9.818
  1298G11  C07W89522   6.491   4.090  10.083
  1298G11  C08389523   6.381   4.313  10.202
  1298G11  C07J89524   6.478   4.456   9.886
  1298G11  C06O89525   6.384   4.688  10.018
  1298G11  C06M89526   6.340   4.553  10.209
  1308G11  C07189527   9.410  10.058   5.952
  1308G11  C07L89528   9.387  10.002   6.078
  1308G11  C07M89529   9.264   9.963   6.116
  1308G11  C07Y89530   9.244   9.890   6.236
  1308G11  C08189531   9.352   9.863   6.328
  1308G11  C08289532   9.324   9.791   6.449
  1308G11  C0DI89533   9.410   9.758   6.564
  1308G11  C0DH89534   9.542   9.782   6.591
  1308G11  C0DG89535   9.574   9.751   6.729
  1308G11  C0E989536   9.687   9.675   6.789
  1308G11  C0E889537   9.623   9.607   6.911
  1308G11  C0E789538   9.678   9.566   7.038
  1308G11  C0EB89539   9.823   9.591   7.058
  1308G11  C0EF89540   9.902   9.589   7.186
  1308G11  C0EE89541   9.868   9.613   7.320
  1308G11  C0FD89542   9.954   9.686   7.403
  1308G11  C0FE89543  10.056   9.771   7.351
  1308G11  H01B89544  10.071   9.774   7.244
  1308G11  C0FF89545  10.134   9.847   7.434
  1308G11  H01A89546  10.221   9.900   7.398
  1308G11  C0FG89547  10.110   9.833   7.571
  1308G11  H01889548  10.166   9.895   7.639
  1308G11  C0FH89549  10.009   9.754   7.625
  1308G11  C0FI89550   9.981   9.747   7.762
  1308G11  H01989551  10.037   9.816   7.824
  1308G11  O00K89552   9.878   9.678   7.818
  1308G11  C0FL89553   9.803   9.604   7.733
  1308G11  C0FK89554   9.820   9.607   7.589
  1308G11  C0FM89555   9.729   9.538   7.505
  1308G11  C0FN89556   9.636   9.446   7.562
  1308G11  C0FP89557   9.622   9.450   7.703
  1308G11  C0GO89558   9.516   9.378   7.758
  1308G11  C0GN89559   9.473   9.390   7.893
  1308G11  C0GR89560   9.563   9.465   7.972
  1308G11  C0GS89561   9.536   9.475   8.112
  1308G11  H01Q89562   9.613   9.525   8.168
  1308G11  C0GT89563   9.425   9.409   8.171
  1308G11  H01O89564   9.401   9.425   8.275
  1308G11  C0GU89565   9.338   9.337   8.086
  1308G11  H01P89566   9.251   9.284   8.120
  1308G11  O00L89567   9.670   9.541   7.920
  1308G11  C0GM89568   9.359   9.323   7.944
  1308G11  C0GL89569   9.276   9.257   7.844
  1308G11  H01R89570   9.185   9.206   7.873
  1308G11  C0GK89571   9.327   9.230   7.713
  1308G11  C0GP89572   9.274   9.178   7.593
  1308G11  C0E289573   9.375   9.185   7.496
  1308G11  C0E189574   9.327   9.182   7.367
  1308G11  C0DU89575   9.347   9.287   7.267
  1308G11  C0DT89576   9.450   9.376   7.257
  1308G11  C0E489577   9.550   9.403   7.351
  1308G11  C0E589578   9.643   9.484   7.287
  1308G11  C0DS89579   9.474   9.452   7.145
  1308G11  C0DR89580   9.369   9.443   7.050
  1308G11  C0DD89581   9.364   9.513   6.934
  1308G11  C0DC89582   9.224   9.486   6.883
  1308G11  C0DP89583   9.147   9.401   6.974
  1308G11  C0DA89584   9.012   9.351   6.954
  1308G11  C0D989585   8.901   9.372   6.854
  1308G11  C0CR89586   8.774   9.307   6.856
  1308G11  C0C089587   8.741   9.211   6.946
  1308G11  C0BZ89588   8.622   9.146   6.960
  1308G11  C0C189589   8.599   9.049   7.060
  1308G11  C0C789590   8.478   8.980   7.067
  1308G11  C0C689591   8.453   8.884   7.165
  1308G11  C0C989592   8.334   8.815   7.172
  1308G11  C0B889593   8.311   8.722   7.278
  1308G11  C0B789594   8.191   8.648   7.279
  1308G11  C0B689595   8.136   8.554   7.376
  1308G11  C0B589596   8.141   8.602   7.514
  1308G11  H00Z89597   8.205   8.683   7.544
  1308G11  C0B489598   8.022   8.549   7.579
  1308G11  H01089599   7.980   8.575   7.675
  1308G11  C0B389600   7.949   8.457   7.494
  1308G11  C0AP89601   7.808   8.469   7.453
  1308G11  C0AQ89602   7.815   8.488   7.317
  1308G11  C0AR89603   7.704   8.533   7.243
  1308G11  C0AS89604   7.740   8.600   7.127
  1308G11  C0AT89605   7.870   8.644   7.089
  1308G11  C0BA89606   7.976   8.607   7.166
  1308G11  C0AU89607   7.885   8.756   7.011
  1308G11  C0BE89608   8.012   8.820   7.001
  1308G11  C0BI89609   8.021   8.941   6.930
  1308G11  C0BJ89610   7.909   8.999   6.868
  1308G11  C0BK89611   7.922   9.109   6.784
  1308G11  C0BW89612   8.045   9.154   6.751
  1308G11  C0BV89613   8.153   9.107   6.822
  1308G11  C0BU89614   8.278   9.167   6.815
  1308G11  C0BX89615   8.386   9.127   6.893
  1308G11  C0BT89616   8.298   9.274   6.725
  1308G11  C0CD89617   8.429   9.323   6.703
  1308G11  C0CB89618   8.538   9.282   6.782
  1308G11  C0CE89619   8.440   9.418   6.605
  1308G11  C0CK89620   8.332   9.463   6.527
  1308G11  C0BS89621   8.205   9.421   6.554
  1308G11  C0CJ89622   8.090   9.468   6.475
  1308G11  C0BP89623   7.964   9.413   6.504
  1308G11  C0CI89624   7.848   9.461   6.443
  1308G11  C0CH89625   7.726   9.443   6.510
  1308G11  H01289626   7.637   9.499   6.486
  1308G11  C0BN89627   7.708   9.332   6.593
  1308G11  C0CG89628   7.582   9.275   6.623
  1308G11  C0CF89629   7.465   9.328   6.557
  1308G11  H01389630   7.465   9.406   6.483
  1308G11  O00G89631   7.338   9.276   6.569
  1308G11  C0AA89632   7.332   9.166   6.652
  1308G11  C0A989633   7.203   9.120   6.663
  1308G11  H00U89634   7.113   9.168   6.628
  1308G11  C0A889635   7.181   9.007   6.749
  1308G11  H00V89636   7.079   8.974   6.763
  1308G11  C0A789637   7.285   8.943   6.825
  1308G11  C0A689638   7.421   8.996   6.802
  1308G11  C0A589639   7.536   8.937   6.859
  1308G11  C0A489640   7.529   8.823   6.942
  1308G11  C0A389641   7.431   8.739   7.014
  1308G11  C0A289642   7.300   8.771   7.027
  1308G11  C0A189643   7.214   8.678   7.086
  1308G11  C0A089644   7.223   8.577   7.194
  1308G11  C09Z89645   7.106   8.511   7.229
  1308G11  C09Y89646   7.093   8.444   7.358
  1308G11  H00Y89647   6.998   8.404   7.388
  1308G11  C09X89648   7.209   8.437   7.437
  1308G11  C09W89649   7.192   8.386   7.571
  1308G11  H00R89650   7.094   8.354   7.602
  1308G11  C0AX89651   7.293   8.394   7.666
  1308G11  H00S89652   7.278   8.374   7.771
  1308G11  C0AW89653   7.412   8.438   7.615
  1308G11  H00T89654   7.492   8.449   7.686
  1308G11  C0AN89655   7.444   8.473   7.483
  1308G11  C0AO89656   7.571   8.493   7.431
  1308G11  C0AM89657   7.334   8.485   7.394
  1308G11  C0B289658   6.982   8.511   7.147
  1308G11  O00D89659   6.878   8.443   7.167
  1308G11  C0B189660   6.981   8.597   7.034
  1308G11  H00W89661   6.894   8.593   6.970
  1308G11  C0AL89662   7.342   8.552   7.268
  1308G11  C0AK89663   7.471   8.580   7.227
  1308G11  C0B089664   7.091   8.684   7.009
  1308G11  C0AZ89665   7.103   8.788   6.909
  1308G11  H00X89666   7.020   8.807   6.843
  1308G11  C0AJ89667   7.502   8.649   7.101
  1308G11  C0AH89668   7.653   8.757   6.965
  1308G11  C0AE89669   7.666   8.994   6.838
  1308G11  C0AD89670   7.677   9.113   6.766
  1308G11  C0AY89671   7.237   8.849   6.925
  1308G11  C0AB89672   7.439   9.113   6.720
  1308G11  C0AC89673   7.565   9.168   6.707
  1308G11  C0BM89674   7.819   9.274   6.644
  1308G11  C0CM89675   7.863   9.523   6.318
  1308G11  C09M89676   7.986   9.588   6.283
  1308G11  C09889677   7.984   9.702   6.192
  1308G11  C08R89678   8.088   9.783   6.125
  1308G11  C08Q89679   8.041   9.883   6.042
  1308G11  C08P89680   8.084   9.949   5.914
  1308G11  C08Y89681   7.979  10.006   5.827
  1308G11  C09789682   7.852   9.959   5.852
  1308G11  C09689683   7.788   9.920   5.737
  1308G11  C09089684   7.867   9.974   5.630
  1308G11  C09589685   7.854   9.948   5.491
  1308G11  C09489686   7.930  10.006   5.387
  1308G11  C08J89687   8.064  10.055   5.390
  1308G11  C08I89688   8.124  10.020   5.267
  1308G11  C08H89689   8.270  10.016   5.283
  1308G11  C08G89690   8.287  10.032   5.437
  1308G11  C08F89691   8.392  10.052   5.534
  1308G11  C08E89692   8.524  10.096   5.493
  1308G11  C05989693   8.553  10.160   5.371
  1308G11  C05889694   8.678  10.232   5.353
  1308G11  C05789695   8.727  10.291   5.235
  1308G11  C05689696   8.636  10.285   5.127
  1308G11  C05589697   8.507  10.245   5.143
  1308G11  C05489698   8.451  10.217   5.014
  1308G11  C05389699   8.560  10.212   4.917
  1308G11  C05289700   8.560  10.166   4.778
  1308G11  C05189701   8.437  10.127   4.714
  1308G11  C05U89702   8.307  10.092   4.775
  1308G11  C05T89703   8.266  10.068   4.916
  1308G11  C06K89704   8.120  10.080   4.901
  1308G11  H00J89705   8.057  10.081   4.989
  1308G11  C06L89706   8.074  10.090   4.765
  1308G11  H00I89707   7.973  10.075   4.732
  1308G11  C05V89708   8.192  10.093   4.686
  1308G11  C06J89709   8.197  10.115   4.546
  1308G11  H00K89710   8.111  10.119   4.480
  1308G11  C05X89711   8.323  10.114   4.481
  1308G11  C06I89712   8.344  10.114   4.339
  1308G11  H00L89713   8.254  10.102   4.279
  1308G11  C04Z89714   8.471  10.107   4.273
  1308G11  C06H89715   8.487  10.092   4.129
  1308G11  H00H89716   8.400  10.104   4.066
  1308G11  C04Y89717   8.615  10.071   4.075
  1308G11  C06G89718   8.630  10.072   3.933
  1308G11  O00989719   8.532  10.078   3.860
  1308G11  O00889720   8.757  10.070   3.881
  1308G11  C04P89721   8.871  10.047   3.956
  1308G11  C04J89722   9.005  10.006   3.912
  1308G11  C04Q89723   9.054   9.987   3.778
  1308G11  H00E89724   8.987   9.994   3.693
  1308G11  C04M89725   9.187   9.959   3.745
  1308G11  C04R89726   9.230   9.924   3.618
  1308G11  H00F89727   9.155   9.917   3.541
  1308G11  C04S89728   9.357   9.906   3.592
  1308G11  H00G89729   9.382   9.877   3.491
  1308G11  O00789730   9.455   9.906   3.688
  1308G11  C03V89731   9.417   9.943   3.812
  1308G11  C03U89732   9.519   9.962   3.911
  1308G11  O00689733   9.647   9.943   3.870
  1308G11  C03F89734   9.746   9.965   3.959
  1308G11  C03E89735   9.718   9.985   4.090
  1308G11  C03D89736   9.584   9.994   4.134
  1308G11  C03C89737   9.556  10.021   4.270
  1308G11  C03B89738   9.670  10.040   4.350
  1308G11  C03A89739   9.648  10.065   4.486
  1308G11  C03989740   9.519  10.059   4.541
  1308G11  C03889741   9.545  10.103   4.681
  1308G11  C03789742   9.684  10.131   4.684
  1308G11  C03689743   9.737  10.187   4.793
  1308G11  C02R89744   9.871  10.203   4.815
  1308G11  C03589745   9.871  10.248   4.946
  1308G11  C03R89746   9.744  10.262   5.002
  1308G11  C03S89747   9.712  10.254   5.133
  1308G11  C04989748   9.581  10.234   5.162
  1308G11  C04889749   9.494  10.201   5.057
  1308G11  C03P89750   9.535  10.181   4.923
  1308G11  C04789751   9.362  10.221   5.098
  1308G11  C04689752   9.253  10.225   5.015
  1308G11  C04589753   9.241  10.179   4.884
  1308G11  C03T89754   9.336  10.125   4.797
  1308G11  C04489755   9.264  10.089   4.675
  1308G11  C04389756   9.128  10.096   4.714
  1308G11  C04289757   9.041  10.101   4.599
  1308G11  C04189758   9.132  10.056   4.492
  1308G11  C04089759   9.086  10.023   4.362
  1308G11  C03Z89760   9.171  10.012   4.248
  1308G11  C04H89761   9.084  10.015   4.138
  1308G11  C04G89762   8.949  10.023   4.185
  1308G11  C03N89763   9.319  10.004   4.220
  1308G11  C03Y89764   9.347   9.990   4.085
  1308G11  C03X89765   9.247   9.987   3.980
  1308G11  C04F89766   8.954  10.039   4.315
  1308G11  C04E89767   8.826  10.073   4.377
  1308G11  C04O89768   8.710  10.074   4.297
  1308G11  C04D89769   8.804  10.109   4.513
  1308G11  C04V89770   8.673  10.127   4.568
  1308G11  C04W89771   8.559  10.110   4.496
  1308G11  C04C89772   8.898  10.135   4.609
  1308G11  C04L89773   8.818  10.171   4.728
  1308G11  C04U89774   8.868  10.225   4.849
  1308G11  C05Q89775   8.804  10.269   4.967
  1308G11  C05P89776   8.893  10.295   5.074
  1308G11  C04T89777   9.022  10.266   5.022
  1308G11  C04B89778   9.004  10.225   4.890
  1308G11  C03M89779   9.278  10.054   4.537
  1308G11  C04A89780   9.117  10.166   4.831
  1308G11  C05H89781   9.147  10.263   5.091
  1308G11  C05G89782   9.186  10.271   5.226
  1308G11  C05F89783   9.101  10.310   5.329
  1308G11  C05E89784   9.129  10.260   5.458
  1308G11  C05L89785   9.249  10.213   5.530
  1308G11  C05K89786   9.381  10.221   5.477
  1308G11  C05J89787   9.415  10.237   5.339
  1308G11  C06689788   9.486  10.199   5.571
  1308G11  C06589789   9.461  10.160   5.702
  1308G11  C06489790   9.328  10.137   5.744
  1308G11  C06N89791   9.570  10.130   5.786
  1308G11  C06989792   9.703  10.148   5.742
  1308G11  C06P89793   9.808  10.125   5.825
  1308G11  C06R89794   9.940  10.147   5.785
  1308G11  C06B89795   9.966  10.188   5.658
  1308G11  C06S89796  10.102  10.205   5.614
  1308G11  C02G89797  10.122  10.224   5.478
  1308G11  C02F89798  10.256  10.221   5.429
  1308G11  C02789799  10.362  10.200   5.517
  1308G11  C02689800  10.493  10.176   5.466
  1308G11  C00E89801  10.598  10.139   5.550
  1308G11  C00D89802  10.723  10.116   5.496
  1308G11  C00C89803  10.822  10.072   5.579
  1308G11  C00B89804  10.805  10.046   5.712
  1308G11  C01589805  10.676  10.067   5.766
  1308G11  C07F89806  10.650  10.029   5.897
  1308G11  C07E89807  10.520  10.039   5.948
  1308G11  C06W89808  10.416  10.094   5.864
  1308G11  C06V89809  10.443  10.129   5.733
  1308G11  C06X89810  10.284  10.088   5.911
  1308G11  C07B89811  10.257  10.038   6.039
  1308G11  C07C89812  10.361   9.986   6.119
  1308G11  C0FU89813  10.329   9.921   6.239
  1308G11  C0F789814  10.426   9.849   6.309
  1308G11  C0F689815  10.396   9.774   6.423
  1308G11  C0F889816  10.497   9.717   6.499
  1308G11  C0F989817  10.466   9.649   6.615
  1308G11  C0FA89818  10.570   9.592   6.686
  1308G11  C0FZ89819  10.695   9.591   6.632
  1308G11  C0G089820  10.795   9.530   6.704
  1308G11  C0GD89821  10.773   9.467   6.828
  1308G11  C0FC89822  10.643   9.456   6.873
  1308G11  C0GH89823  10.617   9.382   6.994
  1308G11  C0EY89824  10.495   9.388   7.048
  1308G11  C0EX89825  10.463   9.321   7.172
  1308G11  C0EW89826  10.340   9.339   7.226
  1308G11  C0FR89827  10.313   9.277   7.349
  1308G11  H01D89828  10.213   9.288   7.389
  1308G11  C0FS89829  10.395   9.187   7.411
  1308G11  H01C89830  10.363   9.124   7.492
  1308G11  C0GJ89831  10.523   9.181   7.357
  1308G11  H01N89832  10.596   9.124   7.413
  1308G11  C0EV89833  10.246   9.430   7.171
  1308G11  C0FT89834  10.129   9.471   7.242
  1308G11  H01E89835  10.109   9.454   7.346
  1308G11  C0EU89836  10.270   9.473   7.039
  1308G11  C0ET89837  10.166   9.534   6.966
  1308G11  C0EI89838  10.180   9.579   6.837
  1308G11  C0F189839  10.308   9.574   6.782
  1308G11  C0F089840  10.414   9.522   6.859
  1308G11  C0EH89841  10.067   9.636   6.767
  1308G11  C0EG89842   9.935   9.634   6.820
  1308G11  C0EJ89843  10.096   9.695   6.643
  1308G11  C0F389844  10.233   9.705   6.594
  1308G11  C0EK89845   9.993   9.748   6.562
  1308G11  C0EL89846   9.857   9.744   6.613
  1308G11  C0EM89847   9.767   9.809   6.517
  1308G11  C0EN89848   9.812   9.860   6.397
  1308G11  C07I89849   9.710   9.915   6.320
  1308G11  C07489850   9.732   9.971   6.196
  1308G11  C07389851   9.623   9.992   6.119
  1308G11  C07289852   9.649  10.049   5.991
  1308G11  C07589853   9.864   9.992   6.162
  1308G11  C07689854   9.969   9.947   6.242
  1308G11  C07889855  10.099   9.965   6.206
  1308G11  C07G89856   9.886  10.052   6.038
  1308G11  C07089857  10.021  10.070   5.996
  1308G11  C07Z89858   9.590   9.890   6.375
  1308G11  C07789859   9.942   9.877   6.358
  1308G11  C0EO89860  10.033   9.814   6.443
  1308G11  C0F489861  10.163   9.828   6.402
  1308G11  C0EQ89862  10.048   9.555   7.032
  1308G11  C0FQ89863  10.559   9.243   7.235
  1308G11  C0GI89864  10.686   9.244   7.178
  1308G11  H01L89865  10.759   9.181   7.229
  1308G11  C0EZ89866  10.394   9.460   6.982
  1308G11  C0GG89867  10.721   9.315   7.063
  1308G11  C0GF89868  10.849   9.323   7.008
  1308G11  H01M89869  10.933   9.282   7.061
  1308G11  C0GE89870  10.872   9.400   6.901
  1308G11  H01K89871  10.973   9.404   6.863
  1308G11  O00J89872  10.928   9.526   6.660
  1308G11  C0GA89873  10.955   9.614   6.561
  1308G11  C0G989874  11.092   9.630   6.529
  1308G11  H01H89875  11.169   9.580   6.586
  1308G11  C0G889876  11.134   9.714   6.425
  1308G11  C0G789877  11.269   9.740   6.371
  1308G11  H01I89878  11.356   9.694   6.417
  1308G11  O00I89879  11.289   9.829   6.275
  1308G11  C0G689880  11.189   9.855   6.187
  1308G11  H01J89881  11.222   9.912   6.102
  1308G11  C02D89882  11.054   9.831   6.222
  1308G11  C02C89883  10.952   9.862   6.133
  1308G11  C01789884  10.980   9.898   5.997
  1308G11  C01689885  10.877   9.952   5.917
  1308G11  O00189886  11.099   9.863   5.939
  1308G11  C01889887  11.125   9.873   5.805
  1308G11  C00989888  11.031   9.945   5.726
  1308G11  C00889889  11.045   9.984   5.585
  1308G11  C00789890  11.144   9.965   5.481
  1308G11  C00689891  11.257   9.877   5.500
  1308G11  C00589892  11.339   9.827   5.396
  1308G11  C00489893  11.339   9.853   5.249
  1308G11  C00389894  11.230   9.908   5.165
  1308G11  C00289895  11.242   9.897   5.024
  1308G11  C00P89896  11.131   9.922   4.937
  1308G11  C00O89897  11.142   9.897   4.798
  1308G11  C00N89898  11.028   9.905   4.714
  1308G11  C01089899  11.036   9.880   4.577
  1308G11  C01189900  10.927   9.885   4.489
  1308G11  C01Q89901  10.945   9.855   4.353
  1308G11  C01U89902  11.074   9.815   4.302
  1308G11  C01289903  11.182   9.820   4.385
  1308G11  H00089904  11.285   9.799   4.362
  1308G11  C01V89905  11.073   9.781   4.167
  1308G11  H00789906  11.167   9.767   4.115
  1308G11  O00589907  10.962   9.781   4.085
  1308G11  C01W89908  10.838   9.813   4.141
  1308G11  C03189909  10.722   9.799   4.060
  1308G11  C03289910  10.595   9.809   4.116
  1308G11  H00A89911  10.502   9.798   4.062
  1308G11  C03389912  10.588   9.839   4.249
  1308G11  H00B89913  10.486   9.845   4.282
  1308G11  C01O89914  10.700   9.874   4.333
  1308G11  C01N89915  10.682   9.931   4.462
  1308G11  C01M89916  10.556   9.982   4.521
  1308G11  C01L89917  10.407   9.997   4.504
  1308G11  C01K89918  10.359  10.043   4.627
  1308G11  C01Y89919  10.233  10.094   4.661
  1308G11  C02I89920  10.131  10.084   4.573
  1308G11  C02N89921  10.003  10.119   4.622
  1308G11  C02M89922   9.892  10.096   4.535
  1308G11  C02L89923   9.912  10.056   4.401
  1308G11  C02K89924  10.047  10.044   4.352
  1308G11  C02U89925  10.066  10.020   4.216
  1308G11  C02V89926   9.957   9.998   4.133
  1308G11  C03H89927   9.980   9.960   3.997
  1308G11  H00C89928  10.078   9.937   3.958
  1308G11  C02W89929  10.192  10.028   4.165
  1308G11  C02X89930  10.298  10.035   4.256
  1308G11  C02Y89931  10.415  10.069   4.182
  1308G11  H00889932  10.514  10.081   4.224
  1308G11  C02Z89933  10.376  10.075   4.040
  1308G11  O00489934  10.456  10.083   3.942
  1308G11  O00389935  10.235  10.061   4.038
  1308G11  C02J89936  10.156  10.039   4.444
  1308G11  C01Z89937  10.221  10.127   4.796
  1308G11  C02089938  10.327  10.133   4.887
  1308G11  C01I89939  10.445  10.091   4.846
  1308G11  C01H89940  10.560  10.087   4.925
  1308G11  C00K89941  10.681  10.047   4.868
  1308G11  C01S89942  10.687  10.006   4.736
  1308G11  C01489943  10.798   9.962   4.679
  1308G11  C00J89944  10.790  10.033   4.950
  1308G11  C00I89945  10.774  10.067   5.084
  1308G11  C00H89946  10.656  10.111   5.141
  1308G11  C00G89947  10.638  10.132   5.279
  1308G11  C00S89948  10.882  10.047   5.176
  1308G11  C00T89949  10.864  10.078   5.306
  1308G11  C00U89950  10.973  10.058   5.387
  1308G11  C00R89951  11.003   9.988   5.126
  1308G11  C00L89952  10.907   9.989   4.897
  1308G11  C02889953  10.549  10.122   5.056
  1308G11  C02389954  10.424  10.162   5.108
  1308G11  C02489955  10.405  10.184   5.244
  1308G11  C02189956  10.316  10.170   5.020
  1308G11  C02289957  10.194  10.203   5.071
  1308G11  C02H89958  10.176  10.223   5.208
  1308G11  C03089959  10.047  10.247   5.260
  1308G11  C03489960   9.945  10.267   5.171
  1308G11  C02P89961  10.093  10.214   4.976
  1308G11  C02B89962  10.102  10.168   4.841
  1308G11  C01J89963  10.455  10.043   4.719
  1308G11  C01X89964  10.298  10.021   4.399
  1308G11  C01T89965  10.569   9.999   4.659
  1308G11  H00989966  10.737   9.767   3.958
  1308G11  C01P89967  10.827   9.845   4.277
  1308G11  C01R89968  10.798   9.931   4.541
  1308G11  C00Z89969  11.163   9.856   4.522
  1308G11  O00089970  11.276   9.858   4.606
  1308G11  C00M89971  10.908   9.951   4.763
  1308G11  C00Y89972  11.264   9.863   4.740
  1308G11  C01389973  11.374   9.847   4.827
  1308G11  H00189974  11.474   9.820   4.797
  1308G11  C00Q89975  11.015   9.963   4.988
  1308G11  C00189976  11.363   9.847   4.967
  1308G11  C00089977  11.471   9.821   5.051
  1308G11  H00689978  11.570   9.805   5.010
  1308G11  C00W89979  11.110   9.960   5.213
  1308G11  C01G89980  11.457   9.824   5.186
  1308G11  H00589981  11.552   9.810   5.236
  1308G11  C01C89982  11.430   9.739   5.453
  1308G11  H00289983  11.500   9.676   5.401
  1308G11  C01B89984  11.412   9.742   5.597
  1308G11  C01D89985  11.475   9.663   5.702
  1308G11  H00389986  11.551   9.590   5.682
  1308G11  C01E89987  11.424   9.678   5.825
  1308G11  H00489988  11.460   9.618   5.908
  1308G11  O00289989  11.321   9.760   5.853
  1308G11  C01A89990  11.298   9.817   5.624
  1308G11  C00V89991  11.088   9.988   5.353
  1308G11  C01989992  11.247   9.820   5.755
  1308G11  C02E89993  10.820   9.864   6.173
  1308G11  C0FX89994  10.790   9.810   6.295
  1308G11  C0FW89995  10.657   9.801   6.339
  1308G11  C0GB89996  10.891   9.763   6.378
  1308G11  C0G389997  10.720   9.928   6.097
  1308G11  C07H89998  10.589   9.929   6.148
  1308G11  C0GC89999  11.026   9.775   6.345
  1308G11  C0G290000  10.855   9.675   6.478
  1308G11  C0G190001  10.726   9.661   6.517
  1308G11  C0FB90002  10.543   9.516   6.802
  1308G11  C0F290003  10.339   9.639   6.663
  1308G11  C0FY90004  10.625   9.730   6.452
  1308G11  C0F590005  10.264   9.768   6.471
  1308G11  C0FV90006  10.557   9.861   6.267
  1308G11  C07990007  10.197   9.907   6.290
  1308G11  C07A90008  10.126  10.025   6.080
  1308G11  C06Y90009  10.182  10.132   5.832
  1308G11  C07D90010  10.492   9.988   6.074
  1308G11  C01F90011  10.748   9.967   5.971
  1308G11  C00A90012  10.906   9.983   5.783
  1308G11  C00X90013  10.946  10.050   5.520
  1308G11  C00F90014  10.743  10.116   5.361
  1308G11  C02990015  10.572  10.114   5.683
  1308G11  C02590016  10.514  10.168   5.328
  1308G11  C06U90017  10.340  10.176   5.649
  1308G11  C02A90018  10.283  10.216   5.293
  1308G11  C05Y90019  10.020  10.237   5.395
  1308G11  C05Z90020   9.889  10.237   5.438
  1308G11  C06090021   9.784  10.245   5.349
  1308G11  C06290022   9.653  10.239   5.390
  1308G11  C06T90023  10.209  10.175   5.701
  1308G11  C06A90024   9.858  10.203   5.570
  1308G11  C06Z90025  10.048  10.122   5.871
  1308G11  C06Q90026   9.780  10.078   5.953
  1308G11  C06890027   9.725  10.200   5.613
  1308G11  C06790028   9.622  10.210   5.522
  1308G11  C06390029   9.224  10.171   5.662
  1308G11  C06C90030   9.092  10.150   5.712
  1308G11  C06D90031   8.977  10.183   5.643
  1308G11  C06E90032   8.849  10.144   5.675
  1308G11  C07Q90033   8.831  10.076   5.787
  1308G11  C07P90034   8.940  10.056   5.871
  1308G11  C07T90035   8.920   9.985   5.982
  1308G11  C07U90036   9.029   9.962   6.067
  1308G11  C07V90037   9.011   9.880   6.175
  1308G11  C08490038   8.883   9.830   6.205
  1308G11  C08C90039   8.773   9.857   6.131
  1308G11  C08B90040   8.651   9.801   6.156
  1308G11  C08A90041   8.553   9.834   6.074
  1308G11  C08990042   8.561   9.909   5.960
  1308G11  C08890043   8.450   9.937   5.880
  1308G11  C08790044   8.472  10.000   5.756
  1308G11  C08690045   8.598  10.040   5.721
  1308G11  C08X90046   8.323   9.897   5.922
  1308G11  C08T90047   8.313   9.813   6.038
  1308G11  C08D90048   8.688   9.948   5.928
  1308G11  C08U90049   8.426   9.793   6.111
  1308G11  C08V90050   8.406   9.715   6.219
  1308G11  C0CY90051   8.511   9.683   6.309
  1308G11  C0CX90052   8.480   9.604   6.409
  1308G11  C0CW90053   8.590   9.560   6.486
  1308G11  C0CV90054   8.717   9.607   6.456
  1308G11  C0D490055   8.739   9.696   6.351
  1308G11  C0CU90056   8.825   9.565   6.534
  1308G11  C0CT90057   8.810   9.481   6.646
  1308G11  C0CS90058   8.681   9.430   6.666
  1308G11  C0D690059   8.946   9.622   6.498
  1308G11  C0EC90060   8.969   9.705   6.390
  1308G11  C07X90061   9.092   9.763   6.369
  1308G11  C0DL90062   9.048   9.579   6.574
  1308G11  C0DK90063   9.174   9.641   6.560
  1308G11  C0DN90064   9.245   9.620   6.669
  1308G11  C0D890065   9.046   9.509   6.697
  1308G11  C08W90066   8.279   9.682   6.232
  1308G11  C0CQ90067   8.240   9.602   6.350
  1308G11  C09390068   8.636   9.725   6.270
  1308G11  C09290069   8.866   9.744   6.316
  1308G11  C08590070   8.796   9.929   6.013
  1308G11  C07S90071   8.705  10.020   5.811
  1308G11  C06F90072   8.746  10.160   5.582
  1308G11  C07O90073   9.068  10.091   5.831
  1308G11  C07N90074   9.173  10.058   5.913
  1308G11  C05D90075   9.002  10.252   5.523
  1308G11  C05C90076   8.895  10.281   5.440
  1308G11  C05N90077   8.955  10.308   5.320
  1308G11  C05M90078   9.321  10.244   5.233
  1308G11  C05I90079   9.546  10.241   5.298
  1308G11  C06190080   9.814  10.265   5.216
  1308G11  C02Q90081   9.974  10.251   5.033
  1308G11  C02O90082   9.994  10.162   4.757
  1308G11  C03Q90083   9.663  10.221   4.907
  1308G11  C03O90084   9.468  10.130   4.807
  1308G11  C03L90085   9.404  10.033   4.464
  1308G11  C02S90086   9.755  10.096   4.574
  1308G11  C02T90087   9.805  10.032   4.311
  1308G11  C03K90088   9.422  10.017   4.321
  1308G11  C03I90089   9.826  10.009   4.177
  1308G11  C03G90090   9.874   9.945   3.908
  1308G11  H00D90091   9.891   9.920   3.804
  1308G11  C03J90092   9.482   9.981   4.045
  1308G11  C03W90093   9.281   9.967   3.846
  1308G11  C04I90094   9.113  10.001   4.004
  1308G11  C04K90095   8.850  10.045   4.094
  1308G11  C04N90096   8.725  10.066   4.156
  1308G11  C04X90097   8.578  10.098   4.354
  1308G11  C05090098   8.437  10.118   4.564
  1308G11  C05W90099   8.678  10.159   4.703
  1308G11  C05S90100   8.347  10.114   5.038
  1308G11  C05R90101   8.666  10.266   4.995
  1308G11  C05O90102   8.865  10.303   5.207
  1308G11  C05B90103   8.764  10.233   5.462
  1308G11  C05A90104   8.471  10.160   5.247
  1308G11  C07R90105   8.619  10.101   5.596
  1308G11  C08N90106   8.364  10.020   5.670
  1308G11  C08M90107   8.232   9.998   5.719
  1308G11  C08L90108   8.124  10.023   5.632
  1308G11  C09190109   8.357  10.087   5.194
  1308G11  C09K90110   8.026   9.942   5.188
  1308G11  H00M90111   8.044   9.876   5.104
  1308G11  C08K90112   8.156  10.037   5.493
  1308G11  C09J90113   7.903   9.944   5.260
  1308G11  C09I90114   7.782   9.868   5.285
  1308G11  C09L90115   7.685   9.821   5.191
  1308G11  H00N90116   7.698   9.823   5.084
  1308G11  C09Q90117   7.570   9.780   5.251
  1308G11  H00O90118   7.490   9.759   5.182
  1308G11  O00B90119   7.551   9.754   5.387
  1308G11  C09G90120   7.642   9.799   5.481
  1308G11  C09F90121   7.599   9.783   5.620
  1308G11  O00A90122   7.479   9.708   5.629
  1308G11  C09P90123   7.427   9.717   5.750
  1308G11  H00P90124   7.319   9.714   5.764
  1308G11  C09O90125   7.507   9.705   5.864
  1308G11  C09D90126   7.634   9.779   5.864
  1308G11  C09C90127   7.728   9.794   5.972
  1308G11  C09N90128   7.755   9.726   6.099
  1308G11  C09T90129   7.700   9.596   6.118
  1308G11  C09S90130   7.576   9.560   6.063
  1308G11  C0CP90131   7.545   9.445   6.138
  1308G11  C0CN90132   7.648   9.405   6.227
  1308G11  C0CO90133   7.628   9.280   6.291
  1308G11  H01490134   7.706   9.237   6.352
  1308G11  C0CZ90135   7.503   9.211   6.271
  1308G11  H01590136   7.479   9.118   6.320
  1308G11  C0D090137   7.396   9.264   6.195
  1308G11  C0G590138   7.260   9.208   6.187
  1308G11  H01F90139   7.253   9.110   6.233
  1308G11  C0G490140   7.166   9.272   6.116
  1308G11  H01G90141   7.068   9.226   6.110
  1308G11  O00H90142   7.191   9.385   6.037
  1308G11  C0D290143   7.316   9.435   6.037
  1308G11  C09V90144   7.354   9.547   5.961
  1308G11  H00Q90145   7.273   9.579   5.897
  1308G11  C0D190146   7.417   9.385   6.121
  1308G11  C09R90147   7.481   9.607   5.967
  1308G11  C09H90148   7.752   9.869   5.428
  1308G11  C09E90149   7.672   9.829   5.731
  1308G11  C09B90150   7.821   9.892   5.971
  1308G11  C08Z90151   7.996  10.003   5.689
  1308G11  C08O90152   8.212   9.946   5.856
  1308G11  C09A90153   7.903   9.898   6.086
  1308G11  C08S90154   8.217   9.746   6.119
  1308G11  C09990155   7.869   9.783   6.166
  1308G11  C09U90156   7.749   9.508   6.227
  1308G11  C0BO90157   7.947   9.316   6.604
  1308G11  C0CL90158   8.108   9.555   6.365
  1308G11  C0D390159   8.351   9.556   6.423
  1308G11  C0D590160   8.568   9.467   6.588
  1308G11  C0BR90161   8.189   9.315   6.647
  1308G11  C0BQ90162   8.061   9.264   6.674
  1308G11  C0BL90163   7.807   9.168   6.733
  1308G11  C0AF90164   7.788   8.937   6.886
  1308G11  C0BH90165   8.141   9.001   6.917
  1308G11  C0BG90166   8.249   8.958   6.993
  1308G11  C0BD90167   8.115   8.781   7.083
  1308G11  C0AG90168   7.776   8.817   6.948
  1308G11  C0AI90169   7.637   8.660   7.063
  1308G11  C0AV90170   7.577   8.532   7.301
  1308G11  C0BB90171   7.946   8.513   7.269
  1308G11  O00C90172   7.683   8.476   7.512
  1308G11  C0BC90173   8.026   8.464   7.370
  1308G11  C0B990174   8.102   8.673   7.170
  1308G11  O00E90175   8.408   8.697   7.372
  1308G11  C0CA90176   8.530   8.751   7.368
  1308G11  O00F90177   8.612   8.713   7.452
  1308G11  C0BF90178   8.236   8.847   7.083
  1308G11  C0C590179   8.547   8.858   7.267
  1308G11  C0C490180   8.676   8.922   7.262
  1308G11  H01190181   8.756   8.891   7.328
  1308G11  C0C890182   8.371   9.020   6.983
  1308G11  C0C290183   8.694   9.019   7.157
  1308G11  C0C390184   8.816   9.092   7.139
  1308G11  C0DY90185   8.925   9.088   7.229
  1308G11  H01690186   8.938   9.038   7.324
  1308G11  C0DX90187   9.011   9.193   7.178
  1308G11  C0DW90188   9.125   9.236   7.255
  1308G11  C0BY90189   8.516   9.186   6.878
  1308G11  C0DB90190   8.842   9.183   7.039
  1308G11  C0CC90191   8.662   9.341   6.769
  1308G11  C0D790192   8.914   9.449   6.738
  1308G11  C0DZ90193   8.965   9.254   7.054
  1308G11  C0DM90194   9.177   9.528   6.753
  1308G11  C0DQ90195   9.246   9.377   7.076
  1308G11  C0DV90196   9.233   9.300   7.188
  1308G11  C0E090197   9.184   9.165   7.375
  1308G11  C0FO90198   9.481   9.266   7.546
  1308G11  C0E390199   9.150   9.181   7.522
  1308G11  H01790200   9.058   9.226   7.557
  1308G11  C0GV90201   9.445   9.285   7.678
  1308G11  C0ES90202   9.560   9.367   7.484
  1308G11  C0GQ90203   9.697   9.533   7.786
  1308G11  C0FJ90204   9.923   9.681   7.538
  1308G11  C0ED90205   9.750   9.545   7.365
  1308G11  C0ER90206  10.033   9.539   7.164
  1308G11  C0EP90207   9.931   9.591   6.957
  1308G11  C0E690208   9.602   9.510   7.150
  1308G11  C0DE90209   9.480   9.584   6.874
  1308G11  C0EA90210   9.824   9.683   6.737
  1308G11  C0DF90211   9.461   9.678   6.770
  1308G11  C08090212   9.629   9.835   6.501
  1308G11  C0DO90213   9.363   9.684   6.672
  1308G11  C0DJ90214   9.200   9.729   6.453
  1308G11  C07K90215   9.477   9.910   6.291
  1308G11  C07W90216   9.113   9.844   6.260
  1308G11  C08390217   9.156   9.995   6.035
  1308G11  C07J90218   9.493   9.975   6.162
  1308G11  C06O90219   9.542  10.082   5.912
  1308G11  C06M90220   9.304  10.078   5.868
  1318G11  C07190221   4.182   1.209  12.048
  1318G11  C07L90222   4.122   1.294  11.956
  1318G11  C07M90223   4.013   1.375  11.991
  1318G11  C07Y90224   3.946   1.449  11.886
  1318G11  C08190225   3.983   1.442  11.754
  1318G11  C08290226   3.899   1.502  11.655
  1318G11  C0DI90227   3.904   1.495  11.508
  1318G11  C0DH90228   4.005   1.455  11.415
  1318G11  C0DG90229   3.949   1.457  11.282
  1318G11  C0E990230   4.018   1.489  11.166
  1318G11  C0E890231   3.926   1.588  11.102
  1318G11  C0E790232   3.967   1.671  10.980
  1318G11  C0EB90233   4.070   1.617  10.890
  1318G11  C0EF90234   4.120   1.688  10.767
  1318G11  C0EE90235   4.158   1.819  10.754
  1318G11  C0FD90236   4.289   1.846  10.712
  1318G11  C0FE90237   4.398   1.756  10.713
  1318G11  H01B90238   4.384   1.652  10.735
  1318G11  C0FF90239   4.521   1.786  10.662
  1318G11  H01A90240   4.582   1.699  10.640
  1318G11  C0FG90241   4.550   1.913  10.620
  1318G11  H01890242   4.643   1.932  10.569
  1318G11  C0FH90243   4.451   2.016  10.637
  1318G11  C0FI90244   4.466   2.152  10.601
  1318G11  H01990245   4.556   2.184  10.551
  1318G11  O00K90246   4.379   2.250  10.639
  1318G11  C0FL90247   4.259   2.209  10.677
  1318G11  C0FK90248   4.224   2.071  10.695
  1318G11  C0FM90249   4.093   2.042  10.737
  1318G11  C0FN90250   3.994   2.141  10.740
  1318G11  C0FP90251   4.035   2.274  10.716
  1318G11  C0GO90252   3.944   2.383  10.727
  1318G11  C0GN90253   3.979   2.514  10.744
  1318G11  C0GR90254   4.118   2.541  10.724
  1318G11  C0GS90255   4.155   2.678  10.733
  1318G11  H01Q90256   4.254   2.714  10.709
  1318G11  C0GT90257   4.063   2.781  10.764
  1318G11  H01O90258   4.083   2.886  10.775
  1318G11  C0GU90259   3.932   2.744  10.796
  1318G11  H01P90260   3.868   2.825  10.827
  1318G11  O00L90261   4.203   2.439  10.680
  1318G11  C0GM90262   3.886   2.612  10.779
  1318G11  C0GL90263   3.755   2.571  10.810
  1318G11  H01R90264   3.671   2.624  10.852
  1318G11  C0GK90265   3.714   2.436  10.782
  1318G11  C0GP90266   3.602   2.350  10.809
  1318G11  C0E290267   3.633   2.218  10.756
  1318G11  C0E190268   3.560   2.125  10.829
  1318G11  C0DU90269   3.610   2.017  10.905
  1318G11  C0DT90270   3.732   1.949  10.894
  1318G11  C0E490271   3.839   1.981  10.809
  1318G11  C0E590272   3.939   1.894  10.842
  1318G11  C0DS90273   3.771   1.839  10.973
  1318G11  C0DR90274   3.683   1.812  11.081
  1318G11  C0DD90275   3.697   1.714  11.179
  1318G11  C0DC90276   3.592   1.748  11.280
  1318G11  C0DP90277   3.511   1.860  11.238
  1318G11  C0DA90278   3.396   1.921  11.307
  1318G11  C0D990279   3.341   1.897  11.447
  1318G11  C0CR90280   3.218   1.955  11.492
  1318G11  C0C090281   3.142   2.036  11.414
  1318G11  C0BZ90282   3.015   2.080  11.439
  1318G11  C0C190283   2.941   2.155  11.342
  1318G11  C0C790284   2.807   2.189  11.370
  1318G11  C0C690285   2.733   2.257  11.272
  1318G11  C0C990286   2.599   2.269  11.293
  1318G11  C0B890287   2.523   2.331  11.196
  1318G11  C0B790288   2.380   2.340  11.208
  1318G11  C0B690289   2.279   2.405  11.123
  1318G11  C0B590290   2.299   2.528  11.060
  1318G11  H00Z90291   2.395   2.575  11.042
  1318G11  C0B490292   2.173   2.609  11.062
  1318G11  H01090293   2.152   2.714  11.048
  1318G11  C0B390294   2.077   2.523  11.129
  1318G11  C0AP90295   1.966   2.531  11.225
  1318G11  C0AQ90296   1.986   2.412  11.302
  1318G11  C0AR90297   1.937   2.405  11.434
  1318G11  C0AS90298   2.004   2.316  11.503
  1318G11  C0AT90299   2.129   2.260  11.471
  1318G11  C0BA90300   2.191   2.294  11.356
  1318G11  C0AU90301   2.210   2.210  11.571
  1318G11  C0BE90302   2.345   2.184  11.544
  1318G11  C0BI90303   2.422   2.133  11.647
  1318G11  C0BJ90304   2.369   2.118  11.774
  1318G11  C0BK90305   2.451   2.079  11.881
  1318G11  C0BW90306   2.586   2.050  11.857
  1318G11  C0BV90307   2.641   2.074  11.733
  1318G11  C0BU90308   2.775   2.050  11.710
  1318G11  C0BX90309   2.828   2.076  11.582
  1318G11  C0BT90310   2.851   1.994  11.811
  1318G11  C0CD90311   2.981   1.960  11.778
  1318G11  C0CB90312   3.034   1.971  11.652
  1318G11  C0CE90313   3.064   1.914  11.882
  1318G11  C0CK90314   3.016   1.910  12.013
  1318G11  C0BS90315   2.881   1.946  12.042
  1318G11  C0CJ90316   2.832   1.927  12.173
  1318G11  C0BP90317   2.696   1.956  12.198
  1318G11  C0CI90318   2.641   1.938  12.322
  1318G11  C0CH90319   2.517   2.010  12.348
  1318G11  H01290320   2.497   2.002  12.454
  1318G11  C0BN90321   2.433   2.043  12.244
  1318G11  C0CG90322   2.300   2.072  12.269
  1318G11  C0CF90323   2.242   2.066  12.404
  1318G11  H01390324   2.305   2.041  12.488
  1318G11  O00G90325   2.108   2.085  12.432
  1318G11  C0AA90326   2.037   2.142  12.332
  1318G11  C0A990327   1.914   2.180  12.362
  1318G11  H00U90328   1.875   2.163  12.461
  1318G11  C0A890329   1.836   2.252  12.268
  1318G11  H00V90330   1.739   2.278  12.308
  1318G11  C0A790331   1.884   2.279  12.136
  1318G11  C0A690332   2.010   2.212  12.097
  1318G11  C0A590333   2.059   2.211  11.965
  1318G11  C0A490334   1.979   2.266  11.854
  1318G11  C0A390335   1.855   2.341  11.830
  1318G11  C0A290336   1.788   2.413  11.930
  1318G11  C0A190337   1.682   2.500  11.904
  1318G11  C0A090338   1.622   2.565  11.788
  1318G11  C09Z90339   1.512   2.653  11.819
  1318G11  C09Y90340   1.462   2.743  11.722
  1318G11  H00Y90341   1.383   2.814  11.742
  1318G11  C09X90342   1.533   2.750  11.594
  1318G11  C09W90343   1.496   2.856  11.513
  1318G11  H00R90344   1.416   2.925  11.535
  1318G11  C0AX90345   1.547   2.870  11.385
  1318G11  H00S90346   1.509   2.950  11.325
  1318G11  C0AW90347   1.651   2.781  11.346
  1318G11  H00T90348   1.697   2.782  11.248
  1318G11  C0AN90349   1.698   2.685  11.438
  1318G11  C0AO90350   1.802   2.597  11.398
  1318G11  C0AM90351   1.633   2.662  11.557
  1318G11  C0B290352   1.452   2.672  11.949
  1318G11  O00D90353   1.365   2.752  11.971
  1318G11  C0B190354   1.507   2.597  12.054
  1318G11  H00W90355   1.468   2.592  12.155
  1318G11  C0AL90356   1.678   2.561  11.655
  1318G11  C0AK90357   1.780   2.473  11.609
  1318G11  C0B090358   1.619   2.515  12.026
  1318G11  C0AZ90359   1.689   2.446  12.135
  1318G11  H00X90360   1.670   2.452  12.241
  1318G11  C0AJ90361   1.845   2.376  11.689
  1318G11  C0AH90362   2.032   2.237  11.727
  1318G11  C0AE90363   2.187   2.164  11.938
  1318G11  C0AD90364   2.268   2.113  12.040
  1318G11  C0AY90365   1.791   2.374  12.070
  1318G11  C0AB90366   2.090   2.157  12.199
  1318G11  C0AC90367   2.219   2.112  12.172
  1318G11  C0BM90368   2.485   2.038  12.114
  1318G11  C0CM90369   2.708   1.863  12.419
  1318G11  C09M90370   2.851   1.856  12.415
  1318G11  C09890371   2.916   1.842  12.537
  1318G11  C08R90372   3.050   1.802  12.570
  1318G11  C08Q90373   3.080   1.801  12.709
  1318G11  C08P90374   3.166   1.721  12.801
  1318G11  C08Y90375   3.122   1.716  12.936
  1318G11  C09790376   2.992   1.751  12.974
  1318G11  C09690377   2.943   1.658  13.060
  1318G11  C09090378   3.059   1.602  13.114
  1318G11  C09590379   3.061   1.497  13.207
  1318G11  C09490380   3.175   1.442  13.274
  1318G11  C08J90381   3.314   1.439  13.228
  1318G11  C08I90382   3.371   1.318  13.277
  1318G11  C08H90383   3.474   1.279  13.175
  1318G11  C08G90384   3.459   1.373  13.057
  1318G11  C08F90385   3.528   1.405  12.931
  1318G11  C08E90386   3.656   1.342  12.907
  1318G11  C05990387   3.738   1.274  13.001
  1318G11  C05890388   3.862   1.225  12.966
  1318G11  C05790389   3.945   1.140  13.040
  1318G11  C05690390   3.903   1.123  13.170
  1318G11  C05590391   3.811   1.207  13.231
  1318G11  C05490392   3.768   1.143  13.349
  1318G11  C05390393   3.835   1.013  13.359
  1318G11  C05290394   3.812   0.898  13.446
  1318G11  C05190395   3.698   0.894  13.534
  1318G11  C05U90396   3.592   0.993  13.546
  1318G11  C05T90397   3.547   1.102  13.463
  1318G11  C06K90398   3.471   1.179  13.552
  1318G11  H00J90399   3.449   1.280  13.521
  1318G11  C06L90400   3.449   1.122  13.680
  1318G11  H00I90401   3.409   1.171  13.768
  1318G11  C05V90402   3.521   1.000  13.670
  1318G11  C06J90403   3.525   0.904  13.765
  1318G11  H00K90404   3.471   0.917  13.857
  1318G11  C05X90405   3.588   0.781  13.734
  1318G11  C06I90406   3.572   0.659  13.802
  1318G11  H00L90407   3.508   0.662  13.889
  1318G11  C04Z90408   3.634   0.533  13.764
  1318G11  C06H90409   3.594   0.409  13.827
  1318G11  H00H90410   3.528   0.419  13.911
  1318G11  C04Y90411   3.651   0.286  13.776
  1318G11  C06G90412   3.610   0.162  13.840
  1318G11  O00990413   3.516   0.151  13.926
  1318G11  O00890414   3.671   0.045  13.781
  1318G11  C04P90415   3.754   0.051  13.677
  1318G11  C04J90416   3.809  -0.071  13.615
  1318G11  C04Q90417   3.782  -0.203  13.644
  1318G11  H00E90418   3.714  -0.221  13.725
  1318G11  C04M90419   3.826  -0.315  13.566
  1318G11  C04R90420   3.790  -0.448  13.578
  1318G11  H00F90421   3.732  -0.476  13.665
  1318G11  C04S90422   3.821  -0.546  13.487
  1318G11  H00G90423   3.789  -0.647  13.508
  1318G11  O00790424   3.901  -0.518  13.376
  1318G11  C03V90425   3.938  -0.387  13.359
  1318G11  C03U90426   4.026  -0.355  13.260
  1318G11  O00690427   4.050  -0.457  13.174
  1318G11  C03F90428   4.145  -0.445  13.080
  1318G11  C03E90429   4.212  -0.322  13.053
  1318G11  C03D90430   4.177  -0.214  13.137
  1318G11  C03C90431   4.238  -0.091  13.104
  1318G11  C03B90432   4.332  -0.082  13.001
  1318G11  C03A90433   4.389   0.038  12.967
  1318G11  C03990434   4.337   0.158  13.021
  1318G11  C03890435   4.387   0.257  12.929
  1318G11  C03790436   4.474   0.185  12.839
  1318G11  C03690437   4.557   0.256  12.754
  1318G11  C02R90438   4.636   0.205  12.658
  1318G11  C03590439   4.661   0.318  12.576
  1318G11  C03R90440   4.602   0.433  12.623
  1318G11  C03S90441   4.566   0.547  12.546
  1318G11  C04990442   4.475   0.632  12.602
  1318G11  C04890443   4.421   0.590  12.724
  1318G11  C03P90444   4.437   0.467  12.796
  1318G11  C04790445   4.338   0.691  12.777
  1318G11  C04690446   4.281   0.698  12.906
  1318G11  C04590447   4.276   0.607  13.009
  1318G11  C03T90448   4.305   0.469  13.007
  1318G11  C04490449   4.249   0.417  13.123
  1318G11  C04390450   4.206   0.524  13.206
  1318G11  C04290451   4.096   0.486  13.289
  1318G11  C04190452   4.111   0.339  13.287
  1318G11  C04090453   4.042   0.253  13.382
  1318G11  C03Z90454   4.036   0.112  13.368
  1318G11  C04H90455   3.948   0.072  13.473
  1318G11  C04G90456   3.893   0.183  13.531
  1318G11  C03N90457   4.092   0.006  13.281
  1318G11  C03Y90458   4.045  -0.122  13.317
  1318G11  C03X90459   3.958  -0.155  13.430
  1318G11  C04F90460   3.948   0.296  13.481
  1318G11  C04E90461   3.888   0.420  13.522
  1318G11  C04O90462   3.788   0.418  13.622
  1318G11  C04D90463   3.921   0.544  13.471
  1318G11  C04V90464   3.846   0.659  13.506
  1318G11  C04W90465   3.742   0.659  13.595
  1318G11  C04C90466   4.018   0.583  13.372
  1318G11  C04L90467   3.997   0.728  13.353
  1318G11  C04U90468   4.054   0.798  13.243
  1318G11  C05Q90469   4.022   0.927  13.202
  1318G11  C05P90470   4.075   0.954  13.078
  1318G11  C04T90471   4.145   0.844  13.040
  1318G11  C04B90472   4.138   0.750  13.140
  1318G11  C03M90473   4.204   0.289  13.181
  1318G11  C04A90474   4.210   0.636  13.128
  1318G11  C05H90475   4.216   0.822  12.920
  1318G11  C05G90476   4.234   0.894  12.797
  1318G11  C05F90477   4.191   1.024  12.775
  1318G11  C05E90478   4.167   1.078  12.647
  1318G11  C05L90479   4.209   1.052  12.511
  1318G11  C05K90480   4.306   0.950  12.475
  1318G11  C05J90481   4.355   0.842  12.566
  1318G11  C06690482   4.349   0.947  12.340
  1318G11  C06590483   4.295   1.037  12.250
  1318G11  C06490484   4.193   1.131  12.278
  1318G11  C06N90485   4.339   1.033  12.111
  1318G11  C06990486   4.435   0.937  12.072
  1318G11  C06P90487   4.474   0.934  11.936
  1318G11  C06R90488   4.561   0.837  11.892
  1318G11  C06B90489   4.608   0.743  11.983
  1318G11  C06S90490   4.682   0.631  11.932
  1318G11  C02G90491   4.716   0.531  12.018
  1318G11  C02F90492   4.773   0.411  11.964
  1318G11  C02790493   4.805   0.397  11.832
  1318G11  C02690494   4.859   0.278  11.785
  1318G11  C00E90495   4.887   0.269  11.651
  1318G11  C00D90496   4.943   0.156  11.602
  1318G11  C00C90497   4.974   0.152  11.469
  1318G11  C00B90498   4.944   0.248  11.375
  1318G11  C01590499   4.885   0.365  11.428
  1318G11  C07F90500   4.851   0.463  11.342
  1318G11  C07E90501   4.783   0.574  11.389
  1318G11  C06W90502   4.767   0.595  11.528
  1318G11  C06V90503   4.808   0.492  11.612
  1318G11  C06X90504   4.700   0.709  11.577
  1318G11  C07B90505   4.649   0.798  11.480
  1318G11  C07C90506   4.666   0.774  11.344
  1318G11  C0FU90507   4.605   0.866  11.255
  1318G11  C0F790508   4.622   0.846  11.120
  1318G11  C0F690509   4.566   0.933  11.028
  1318G11  C0F890510   4.582   0.914  10.891
  1318G11  C0F990511   4.517   0.997  10.799
  1318G11  C0FA90512   4.546   0.987  10.663
  1318G11  C0FZ90513   4.632   0.892  10.622
  1318G11  C0G090514   4.661   0.876  10.486
  1318G11  C0GD90515   4.590   0.949  10.389
  1318G11  C0FC90516   4.499   1.045  10.430
  1318G11  C0GH90517   4.437   1.134  10.336
  1318G11  C0EY90518   4.363   1.239  10.388
  1318G11  C0EX90519   4.314   1.337  10.294
  1318G11  C0EW90520   4.251   1.452  10.347
  1318G11  C0FR90521   4.215   1.558  10.264
  1318G11  H01D90522   4.171   1.646  10.308
  1318G11  C0FS90523   4.218   1.544  10.129
  1318G11  H01C90524   4.188   1.625  10.064
  1318G11  C0GJ90525   4.261   1.422  10.073
  1318G11  H01N90526   4.276   1.403   9.967
  1318G11  C0EV90527   4.238   1.470  10.488
  1318G11  C0FT90528   4.188   1.593  10.541
  1318G11  H01E90529   4.173   1.687  10.491
  1318G11  C0EU90530   4.280   1.368  10.573
  1318G11  C0ET90531   4.251   1.365  10.704
  1318G11  C0EI90532   4.289   1.277  10.804
  1318G11  C0F190533   4.368   1.176  10.755
  1318G11  C0F090534   4.395   1.166  10.616
  1318G11  C0EH90535   4.257   1.302  10.941
  1318G11  C0EG90536   4.174   1.405  10.982
  1318G11  C0EJ90537   4.326   1.216  11.030
  1318G11  C0F390538   4.410   1.116  10.982
  1318G11  C0EK90539   4.307   1.237  11.165
  1318G11  C0EL90540   4.219   1.340  11.215
  1318G11  C0EM90541   4.222   1.349  11.360
  1318G11  C0EN90542   4.308   1.276  11.443
  1318G11  C07I90543   4.281   1.292  11.578
  1318G11  C07490544   4.337   1.206  11.669
  1318G11  C07390545   4.282   1.208  11.798
  1318G11  C07290546   4.330   1.117  11.885
  1318G11  C07590547   4.431   1.119  11.622
  1318G11  C07690548   4.445   1.100  11.482
  1318G11  C07890549   4.524   0.995  11.435
  1318G11  C07G90550   4.474   1.027  11.713
  1318G11  C07090551   4.555   0.928  11.665
  1318G11  C07Z90552   4.164   1.361  11.592
  1318G11  C07790553   4.389   1.177  11.388
  1318G11  C0EO90554   4.388   1.158  11.253
  1318G11  C0F490555   4.465   1.053  11.210
  1318G11  C0EQ90556   4.177   1.471  10.747
  1318G11  C0FQ90557   4.317   1.317  10.156
  1318G11  C0GI90558   4.382   1.200  10.118
  1318G11  H01L90559   4.381   1.167  10.015
  1318G11  C0EZ90560   4.349   1.258  10.525
  1318G11  C0GG90561   4.449   1.113  10.203
  1318G11  C0GF90562   4.533   1.009  10.159
  1318G11  H01M90563   4.548   0.991  10.054
  1318G11  C0GE90564   4.600   0.929  10.249
  1318G11  H01K90565   4.668   0.849  10.222
  1318G11  O00J90566   4.754   0.783  10.435
  1318G11  C0GA90567   4.807   0.700  10.529
  1318G11  C0G990568   4.895   0.601  10.482
  1318G11  H01H90569   4.916   0.604  10.376
  1318G11  C0G890570   4.941   0.496  10.570
  1318G11  C0G790571   5.025   0.390  10.530
  1318G11  H01I90572   5.058   0.401  10.428
  1318G11  O00I90573   5.069   0.289  10.609
  1318G11  C0G690574   5.040   0.308  10.742
  1318G11  H01J90575   5.109   0.251  10.802
  1318G11  C02D90576   4.946   0.402  10.787
  1318G11  C02C90577   4.918   0.416  10.929
  1318G11  C01790578   4.942   0.309  11.020
  1318G11  C01690579   4.924   0.324  11.155
  1318G11  O00190580   4.989   0.193  10.969
  1318G11  C01890581   5.002   0.082  11.044
  1318G11  C00990582   5.002   0.095  11.188
  1318G11  C00890583   5.029  -0.002  11.286
  1318G11  C00790584   5.042  -0.146  11.284
  1318G11  C00690585   5.015  -0.227  11.173
  1318G11  C00590586   5.012  -0.371  11.163
  1318G11  C00490587   5.008  -0.468  11.271
  1318G11  C00390588   4.993  -0.456  11.415
  1318G11  C00290589   4.963  -0.568  11.498
  1318G11  C00P90590   4.926  -0.557  11.635
  1318G11  C00O90591   4.892  -0.668  11.714
  1318G11  C00N90592   4.857  -0.656  11.849
  1318G11  C01090593   4.828  -0.770  11.925
  1318G11  C01190594   4.785  -0.761  12.053
  1318G11  C01Q90595   4.757  -0.872  12.130
  1318G11  C01U90596   4.780  -0.999  12.080
  1318G11  C01290597   4.823  -1.013  11.944
  1318G11  H00090598   4.831  -1.112  11.903
  1318G11  C01V90599   4.755  -1.104  12.168
  1318G11  H00790600   4.781  -1.203  12.134
  1318G11  O00590601   4.697  -1.089  12.293
  1318G11  C01W90602   4.651  -0.964  12.320
  1318G11  C03190603   4.553  -0.959  12.412
  1318G11  C03290604   4.488  -0.837  12.432
  1318G11  H00A90605   4.415  -0.834  12.511
  1318G11  C03390606   4.534  -0.719  12.368
  1318G11  H00B90607   4.478  -0.628  12.385
  1318G11  C01O90608   4.650  -0.720  12.288
  1318G11  C01N90609   4.711  -0.615  12.237
  1318G11  C01M90610   4.730  -0.487  12.308
  1318G11  C01L90611   4.697  -0.407  12.439
  1318G11  C01K90612   4.749  -0.278  12.414
  1318G11  C01Y90613   4.717  -0.163  12.482
  1318G11  C02I90614   4.645  -0.173  12.601
  1318G11  C02N90615   4.611  -0.050  12.665
  1318G11  C02M90616   4.524  -0.062  12.781
  1318G11  C02L90617   4.470  -0.186  12.821
  1318G11  C02K90618   4.502  -0.301  12.749
  1318G11  C02U90619   4.440  -0.423  12.786
  1318G11  C02V90620   4.331  -0.426  12.874
  1318G11  C03H90621   4.250  -0.538  12.886
  1318G11  H00C90622   4.249  -0.611  12.807
  1318G11  C02W90623   4.489  -0.537  12.742
  1318G11  C02X90624   4.590  -0.537  12.646
  1318G11  C02Y90625   4.623  -0.671  12.628
  1318G11  H00890626   4.703  -0.701  12.562
  1318G11  C02Z90627   4.532  -0.753  12.713
  1318G11  O00490628   4.532  -0.875  12.728
  1318G11  O00390629   4.461  -0.663  12.786
  1318G11  C02J90630   4.597  -0.303  12.643
  1318G11  C01Z90631   4.745  -0.044  12.416
  1318G11  C02090632   4.799  -0.042  12.287
  1318G11  C01I90633   4.844  -0.159  12.229
  1318G11  C01H90634   4.878  -0.169  12.100
  1318G11  C00K90635   4.885  -0.291  12.037
  1318G11  C01S90636   4.843  -0.405  12.098
  1318G11  C01490637   4.831  -0.526  12.041
  1318G11  C00J90638   4.910  -0.303  11.901
  1318G11  C00I90639   4.933  -0.189  11.833
  1318G11  C00H90640   4.920  -0.065  11.891
  1318G11  C00G90641   4.918   0.049  11.814
  1318G11  C00S90642   4.969  -0.204  11.696
  1318G11  C00T90643   4.983  -0.084  11.630
  1318G11  C00U90644   5.023  -0.087  11.494
  1318G11  C00R90645   4.977  -0.324  11.624
  1318G11  C00L90646   4.902  -0.424  11.836
  1318G11  C02890647   4.889  -0.052  12.026
  1318G11  C02390648   4.856   0.072  12.083
  1318G11  C02490649   4.847   0.182  12.000
  1318G11  C02190650   4.811   0.073  12.211
  1318G11  C02290651   4.768   0.192  12.262
  1318G11  C02H90652   4.759   0.308  12.182
  1318G11  C03090653   4.707   0.429  12.232
  1318G11  C03490654   4.673   0.431  12.363
  1318G11  C02P90655   4.729   0.193  12.392
  1318G11  C02B90656   4.717   0.079  12.474
  1318G11  C01J90657   4.828  -0.278  12.303
  1318G11  C01X90658   4.629  -0.425  12.569
  1318G11  C01T90659   4.813  -0.396  12.234
  1318G11  H00990660   4.530  -1.054  12.458
  1318G11  C01P90661   4.690  -0.850  12.247
  1318G11  C01R90662   4.775  -0.631  12.113
  1318G11  C00Z90663   4.840  -0.898  11.863
  1318G11  O00090664   4.866  -0.907  11.727
  1318G11  C00M90665   4.869  -0.537  11.908
  1318G11  C00Y90666   4.906  -0.797  11.660
  1318G11  C01390667   4.943  -0.806  11.526
  1318G11  H00190668   4.942  -0.904  11.481
  1318G11  C00Q90669   4.938  -0.435  11.697
  1318G11  C00190670   4.965  -0.697  11.441
  1318G11  C00090671   4.987  -0.705  11.303
  1318G11  H00690672   4.968  -0.796  11.249
  1318G11  C00W90673   4.998  -0.334  11.484
  1318G11  C01G90674   5.005  -0.598  11.221
  1318G11  H00590675   5.000  -0.614  11.114
  1318G11  C01C90676   5.026  -0.398  11.019
  1318G11  H00290677   5.029  -0.494  10.969
  1318G11  C01B90678   5.030  -0.278  10.945
  1318G11  C01D90679   5.043  -0.264  10.813
  1318G11  H00390680   5.052  -0.349  10.748
  1318G11  C01E90681   5.046  -0.138  10.758
  1318G11  H00490682   5.056  -0.115  10.653
  1318G11  O00290683   5.049  -0.028  10.845
  1318G11  C01A90684   5.019  -0.171  11.033
  1318G11  C00V90685   5.022  -0.203  11.416
  1318G11  C01990686   5.024  -0.041  10.978
  1318G11  C02E90687   4.849   0.523  10.977
  1318G11  C0FX90688   4.805   0.620  10.886
  1318G11  C0FW90689   4.719   0.723  10.933
  1318G11  C0GB90690   4.831   0.611  10.752
  1318G11  C0G390691   4.818   0.538  11.112
  1318G11  C07H90692   4.750   0.650  11.161
  1318G11  C0GC90693   4.902   0.501  10.700
  1318G11  C0G290694   4.771   0.700  10.665
  1318G11  C0G190695   4.690   0.801  10.713
  1318G11  C0FB90696   4.481   1.067  10.567
  1318G11  C0F290697   4.429   1.098  10.848
  1318G11  C0FY90698   4.666   0.811  10.845
  1318G11  C0F590699   4.483   1.036  11.073
  1318G11  C0FV90700   4.701   0.743  11.070
  1318G11  C07990701   4.535   0.972  11.301
  1318G11  C07A90702   4.580   0.911  11.527
  1318G11  C06Y90703   4.668   0.720  11.713
  1318G11  C07D90704   4.734   0.663  11.295
  1318G11  C01F90705   4.869   0.444  11.204
  1318G11  C00A90706   4.961   0.223  11.238
  1318G11  C00X90707   5.027   0.033  11.420
  1318G11  C00F90708   4.950   0.040  11.680
  1318G11  C02990709   4.866   0.378  11.566
  1318G11  C02590710   4.877   0.171  11.866
  1318G11  C06U90711   4.777   0.502  11.751
  1318G11  C02A90712   4.794   0.300  12.047
  1318G11  C05Y90713   4.680   0.539  12.147
  1318G11  C05Z90714   4.614   0.653  12.203
  1318G11  C06090715   4.567   0.645  12.334
  1318G11  C06290716   4.487   0.750  12.383
  1318G11  C06T90717   4.715   0.617  11.798
  1318G11  C06A90718   4.574   0.752  12.119
  1318G11  C06Z90719   4.591   0.826  11.757
  1318G11  C06Q90720   4.427   1.029  11.849
  1318G11  C06890721   4.489   0.854  12.165
  1318G11  C06790722   4.442   0.851  12.298
  1318G11  C06390723   4.149   1.135  12.410
  1318G11  C06C90724   4.045   1.221  12.438
  1318G11  C06D90725   3.993   1.237  12.568
  1318G11  C06E90726   3.884   1.312  12.608
  1318G11  C07Q90727   3.818   1.382  12.513
  1318G11  C07P90728   3.870   1.381  12.381
  1318G11  C07T90729   3.811   1.461  12.286
  1318G11  C07U90730   3.863   1.459  12.160
  1318G11  C07V90731   3.796   1.525  12.060
  1318G11  C08490732   3.681   1.598  12.094
  1318G11  C08C90733   3.631   1.599  12.224
  1318G11  C08B90734   3.513   1.664  12.252
  1318G11  C08A90735   3.463   1.652  12.377
  1318G11  C08990736   3.523   1.582  12.477
  1318G11  C08890737   3.460   1.573  12.607
  1318G11  C08790738   3.525   1.502  12.710
  1318G11  C08690739   3.649   1.437  12.680
  1318G11  C08X90740   3.332   1.635  12.635
  1318G11  C08T90741   3.257   1.684  12.519
  1318G11  C08D90742   3.642   1.523  12.447
  1318G11  C08U90743   3.332   1.693  12.402
  1318G11  C08V90744   3.258   1.758  12.299
  1318G11  C0CY90745   3.311   1.779  12.173
  1318G11  C0CX90746   3.223   1.829  12.082
  1318G11  C0CW90747   3.272   1.835  11.952
  1318G11  C0CV90748   3.394   1.780  11.921
  1318G11  C0D490749   3.479   1.725  12.022
  1318G11  C0CU90750   3.444   1.779  11.793
  1318G11  C0CT90751   3.377   1.843  11.690
  1318G11  C0CS90752   3.247   1.888  11.720
  1318G11  C0D690753   3.554   1.710  11.771
  1318G11  C0EC90754   3.635   1.649  11.866
  1318G11  C07X90755   3.754   1.585  11.834
  1318G11  C0DL90756   3.594   1.700  11.639
  1318G11  C0DK90757   3.701   1.621  11.605
  1318G11  C0DN90758   3.696   1.612  11.470
  1318G11  C0D890759   3.519   1.747  11.527
  1318G11  C08W90760   3.131   1.787  12.340
  1318G11  C0CQ90761   3.045   1.853  12.245
  1318G11  C09390762   3.434   1.725  12.153
  1318G11  C09290763   3.602   1.657  11.999
  1318G11  C08590764   3.697   1.530  12.317
  1318G11  C07S90765   3.703   1.449  12.548
  1318G11  C06F90766   3.833   1.307  12.739
  1318G11  C07O90767   3.980   1.298  12.345
  1318G11  C07N90768   4.032   1.300  12.215
  1318G11  C05D90769   4.065   1.176  12.667
  1318G11  C05C90770   4.025   1.184  12.798
  1318G11  C05N90771   4.099   1.089  12.865
  1318G11  C05M90772   4.310   0.813  12.706
  1318G11  C05I90773   4.437   0.742  12.521
  1318G11  C06190774   4.610   0.542  12.417
  1318G11  C02Q90775   4.692   0.317  12.441
  1318G11  C02O90776   4.660   0.071  12.605
  1318G11  C03Q90777   4.538   0.393  12.738
  1318G11  C03O90778   4.368   0.402  12.908
  1318G11  C03L90779   4.237   0.155  13.124
  1318G11  C02S90780   4.475   0.051  12.857
  1318G11  C02T90781   4.373  -0.190  12.927
  1318G11  C03K90782   4.189   0.024  13.175
  1318G11  C03I90783   4.304  -0.309  12.947
  1318G11  C03G90784   4.165  -0.554  12.991
  1318G11  H00D90785   4.105  -0.644  12.994
  1318G11  C03J90786   4.083  -0.224  13.238
  1318G11  C03W90787   3.906  -0.282  13.453
  1318G11  C04I90788   3.904  -0.059  13.510
  1318G11  C04K90789   3.801   0.172  13.631
  1318G11  C04N90790   3.750   0.291  13.678
  1318G11  C04X90791   3.723   0.535  13.663
  1318G11  C05090792   3.672   0.783  13.621
  1318G11  C05W90793   3.884   0.774  13.435
  1318G11  C05S90794   3.628   1.166  13.359
  1318G11  C05R90795   3.935   1.020  13.259
  1318G11  C05O90796   4.051   1.063  12.991
  1318G11  C05B90797   3.903   1.241  12.834
  1318G11  C05A90798   3.712   1.244  13.143
  1318G11  C07R90799   3.709   1.366  12.775
  1318G11  C08N90800   3.464   1.487  12.837
  1318G11  C08M90801   3.340   1.557  12.863
  1318G11  C08L90802   3.281   1.548  12.994
  1318G11  C09190803   3.598   1.222  13.226
  1318G11  C09K90804   3.267   1.229  13.333
  1318G11  H00M90805   3.259   1.121  13.323
  1318G11  C08K90806   3.349   1.461  13.089
  1318G11  C09J90807   3.149   1.313  13.336
  1318G11  C09I90808   3.007   1.301  13.325
  1318G11  C09L90809   2.925   1.197  13.371
  1318G11  H00N90810   2.972   1.114  13.422
  1318G11  C09Q90811   2.792   1.200  13.341
  1318G11  H00O90812   2.738   1.110  13.369
  1318G11  O00B90813   2.731   1.310  13.283
  1318G11  C09G90814   2.812   1.413  13.233
  1318G11  C09F90815   2.749   1.507  13.144
  1318G11  O00A90816   2.618   1.478  13.141
  1318G11  C09P90817   2.546   1.509  13.033
  1318G11  H00P90818   2.452   1.455  13.031
  1318G11  C09O90819   2.591   1.613  12.940
  1318G11  C09D90820   2.724   1.658  12.949
  1318G11  C09C90821   2.792   1.750  12.855
  1318G11  C09N90822   2.755   1.797  12.722
  1318G11  C09T90823   2.649   1.749  12.647
  1318G11  C09S90824   2.528   1.701  12.710
  1318G11  C0CP90825   2.435   1.708  12.605
  1318G11  C0CN90826   2.479   1.746  12.477
  1318G11  C0CO90827   2.386   1.750  12.368
  1318G11  H01490828   2.411   1.772  12.265
  1318G11  C0CZ90829   2.252   1.732  12.408
  1318G11  H01590830   2.178   1.745  12.331
  1318G11  C0D090831   2.209   1.701  12.541
  1318G11  C0G590832   2.071   1.679  12.578
  1318G11  H01F90833   1.993   1.687  12.503
  1318G11  C0G490834   2.036   1.648  12.704
  1318G11  H01G90835   1.934   1.637  12.736
  1318G11  O00H90836   2.129   1.642  12.809
  1318G11  C0D290837   2.257   1.648  12.773
  1318G11  C09V90838   2.356   1.636  12.871
  1318G11  H00Q90839   2.323   1.616  12.972
  1318G11  C0D190840   2.298   1.686  12.645
  1318G11  C09R90841   2.495   1.650  12.842
  1318G11  C09H90842   2.951   1.413  13.254
  1318G11  C09E90843   2.805   1.604  13.058
  1318G11  C09B90844   2.919   1.801  12.870
  1318G11  C08Z90845   3.166   1.624  13.021
  1318G11  C08O90846   3.277   1.638  12.766
  1318G11  C09A90847   2.969   1.870  12.764
  1318G11  C08S90848   3.130   1.743  12.479
  1318G11  C09990849   2.865   1.871  12.665
  1318G11  C09U90850   2.618   1.787  12.509
  1318G11  C0BO90851   2.619   1.998  12.089
  1318G11  C0CL90852   2.910   1.879  12.282
  1318G11  C0D390853   3.095   1.866  12.115
  1318G11  C0D590854   3.197   1.886  11.854
  1318G11  C0BR90855   2.799   1.986  11.938
  1318G11  C0BQ90856   2.670   2.012  11.961
  1318G11  C0BL90857   2.399   2.074  12.013
  1318G11  C0AF90858   2.239   2.155  11.806
  1318G11  C0BH90859   2.560   2.125  11.630
  1318G11  C0BG90860   2.613   2.162  11.509
  1318G11  C0BD90861   2.403   2.228  11.426
  1318G11  C0AG90862   2.162   2.188  11.699
  1318G11  C0AI90863   1.957   2.308  11.636
  1318G11  C0AV90864   1.840   2.493  11.482
  1318G11  C0BB90865   2.104   2.342  11.256
  1318G11  O00C90866   1.865   2.616  11.268
  1318G11  C0BC90867   2.142   2.395  11.145
  1318G11  C0B990868   2.327   2.278  11.323
  1318G11  O00E90869   2.586   2.392  11.094
  1318G11  C0CA90870   2.713   2.372  11.064
  1318G11  O00F90871   2.758   2.410  10.951
  1318G11  C0BF90872   2.537   2.216  11.409
  1318G11  C0C590873   2.790   2.300  11.157
  1318G11  C0C490874   2.930   2.285  11.132
  1318G11  H01190875   2.975   2.319  11.040
  1318G11  C0C890876   2.750   2.147  11.489
  1318G11  C0C290877   2.996   2.204  11.224
  1318G11  C0C390878   3.127   2.153  11.201
  1318G11  C0DY90879   3.214   2.185  11.097
  1318G11  H01690880   3.192   2.242  11.008
  1318G11  C0DX90881   3.336   2.110  11.126
  1318G11  C0DW90882   3.446   2.112  11.031
  1318G11  C0BY90883   2.956   2.038  11.554
  1318G11  C0DB90884   3.192   2.069  11.285
  1318G11  C0CC90885   3.167   1.938  11.618
  1318G11  C0D790886   3.413   1.839  11.554
  1318G11  C0DZ90887   3.320   2.027  11.243
  1318G11  C0DM90888   3.583   1.692  11.416
  1318G11  C0DQ90889   3.570   1.898  11.112
  1318G11  C0DV90890   3.535   2.001  11.019
  1318G11  C0E090891   3.461   2.193  10.909
  1318G11  C0FO90892   3.767   2.215  10.728
  1318G11  C0E390893   3.494   2.335  10.912
  1318G11  H01790894   3.459   2.409  10.982
  1318G11  C0GV90895   3.810   2.352  10.733
  1318G11  C0ES90896   3.859   2.108  10.747
  1318G11  C0GQ90897   4.170   2.308  10.698
  1318G11  C0FJ90898   4.322   1.978  10.679
  1318G11  C0ED90899   4.060   1.909  10.775
  1318G11  C0ER90900   4.157   1.588  10.674
  1318G11  C0EP90901   4.129   1.485  10.876
  1318G11  C0E690902   3.895   1.789  10.933
  1318G11  C0DE90903   3.813   1.622  11.186
  1318G11  C0EA90904   4.138   1.414  11.120
  1318G11  C0DF90905   3.828   1.519  11.283
  1318G11  C08090906   4.131   1.407  11.454
  1318G11  C0DO90907   3.800   1.538  11.421
  1318G11  C0DJ90908   3.786   1.566  11.706
  1318G11  C07K90909   4.103   1.364  11.728
  1318G11  C07W90910   3.832   1.522  11.929
  1318G11  C08390911   3.970   1.382  12.122
  1318G11  C07J90912   4.167   1.288  11.825
  1318G11  C06O90913   4.283   1.118  12.014
  1318G11  C06M90914   4.139   1.217  12.182
  1328G11  C07190915   4.080   9.940  10.539
  1328G11  C07L90916   4.133   9.852  10.639
  1328G11  C07M90917   4.158   9.895  10.767
  1328G11  C07Y90918   4.204   9.810  10.866
  1328G11  C08190919   4.244   9.674  10.830
  1328G11  C08290920   4.287   9.586  10.939
  1328G11  C0DI90921   4.339   9.447  10.930
  1328G11  C0DH90922   4.353   9.349  10.824
  1328G11  C0DG90923   4.412   9.231  10.878
  1328G11  C0E990924   4.389   9.089  10.849
  1328G11  C0E890925   4.422   9.026  10.978
  1328G11  C0E790926   4.471   8.888  11.001
  1328G11  C0EB90927   4.498   8.795  10.889
  1328G11  C0EF90928   4.592   8.682  10.891
  1328G11  C0EE90929   4.690   8.638  10.986
  1328G11  C0FD90930   4.816   8.590  10.937
  1328G11  C0FE90931   4.863   8.598  10.798
  1328G11  H01B90932   4.794   8.647  10.731
  1328G11  C0FF90933   4.976   8.536  10.759
  1328G11  H01A90934   5.002   8.522  10.655
  1328G11  C0FG90935   5.056   8.477  10.856
  1328G11  H01890936   5.150   8.432  10.827
  1328G11  C0FH90937   5.022   8.474  10.993
  1328G11  C0FI90938   5.106   8.415  11.095
  1328G11  H01990939   5.199   8.367  11.068
  1328G11  O00K90940   5.080   8.417  11.230
  1328G11  C0FL90941   4.956   8.458  11.258
  1328G11  C0FK90942   4.866   8.516  11.162
  1328G11  C0FM90943   4.740   8.560  11.208
  1328G11  C0FN90944   4.700   8.526  11.342
  1328G11  C0FP90945   4.791   8.465  11.428
  1328G11  C0GO90946   4.770   8.460  11.559
  1328G11  C0GN90947   4.871   8.438  11.654
  1328G11  C0GR90948   4.998   8.404  11.605
  1328G11  C0GS90949   5.108   8.383  11.688
  1328G11  H01Q90950   5.210   8.366  11.656
  1328G11  C0GT90951   5.088   8.380  11.824
  1328G11  H01O90952   5.178   8.361  11.881
  1328G11  C0GU90953   4.958   8.408  11.879
  1328G11  H01P90954   4.940   8.413  11.985
  1328G11  O00L90955   5.019   8.392  11.470
  1328G11  C0GM90956   4.848   8.448  11.794
  1328G11  C0GL90957   4.717   8.495  11.832
  1328G11  H01R90958   4.699   8.534  11.931
  1328G11  C0GK90959   4.612   8.509  11.741
  1328G11  C0GP90960   4.487   8.580  11.739
  1328G11  C0E290961   4.434   8.569  11.601
  1328G11  C0E190962   4.374   8.697  11.589
  1328G11  C0DU90963   4.380   8.783  11.480
  1328G11  C0DT90964   4.426   8.767  11.354
  1328G11  C0E490965   4.515   8.672  11.313
  1328G11  C0E590966   4.559   8.711  11.187
  1328G11  C0DS90967   4.420   8.867  11.257
  1328G11  C0DR90968   4.385   8.997  11.307
  1328G11  C0DD90969   4.388   9.120  11.233
  1328G11  C0DC90970   4.366   9.226  11.340
  1328G11  C0DP90971   4.344   9.167  11.474
  1328G11  C0DA90972   4.303   9.241  11.599
  1328G11  C0D990973   4.251   9.378  11.625
  1328G11  C0CR90974   4.188   9.410  11.751
  1328G11  C0C090975   4.184   9.322  11.856
  1328G11  C0BZ90976   4.128   9.345  11.981
  1328G11  C0C190977   4.133   9.250  12.084
  1328G11  C0C790978   4.070   9.265  12.206
  1328G11  C0C690979   4.081   9.174  12.307
  1328G11  C0C990980   4.016   9.189  12.429
  1328G11  C0B890981   4.030   9.095  12.532
  1328G11  C0B790982   3.939   9.096  12.646
  1328G11  C0B690983   3.934   9.017  12.765
  1328G11  C0B590984   4.051   8.977  12.828
  1328G11  H00Z90985   4.148   8.958  12.785
  1328G11  C0B490986   4.024   8.994  12.971
  1328G11  H01090987   4.087   8.983  13.058
  1328G11  C0B390988   3.888   9.019  12.986
  1328G11  C0AP90989   3.795   9.103  13.064
  1328G11  C0AQ90990   3.705   9.158  12.971
  1328G11  C0AR90991   3.644   9.282  12.998
  1328G11  C0AS90992   3.624   9.353  12.886
  1328G11  C0AT90993   3.676   9.328  12.760
  1328G11  C0BA90994   3.737   9.206  12.733
  1328G11  C0AU90995   3.697   9.435  12.675
  1328G11  C0BE90996   3.779   9.423  12.571
  1328G11  C0BI90997   3.793   9.534  12.483
  1328G11  C0BJ90998   3.740   9.662  12.513
  1328G11  C0BK90999   3.756   9.770  12.428
  1328G11  C0BW91000   3.817   9.747  12.308
  1328G11  C0BV91001   3.875   9.623  12.277
  1328G11  C0BU91002   3.940   9.611  12.156
  1328G11  C0BX91003   4.004   9.486  12.129
  1328G11  C0BT91004   3.951   9.710  12.061
  1328G11  C0CD91005   4.014   9.687  11.940
  1328G11  C0CB91006   4.069   9.562  11.910
  1328G11  C0CE91007   4.028   9.790  11.851
  1328G11  C0CK91008   3.965   9.915  11.876
  1328G11  C0BS91009   3.900   9.937  11.999
  1328G11  C0CJ91010   3.844  10.057  12.033
  1328G11  C0BP91011   3.783  10.079  12.158
  1328G11  C0CI91012   3.713  10.197  12.191
  1328G11  C0CH91013   3.681  10.224  12.319
  1328G11  H01291014   3.658  10.325  12.349
  1328G11  C0BN91015   3.675  10.118  12.413
  1328G11  C0CG91016   3.602  10.136  12.532
  1328G11  C0CF91017   3.532  10.262  12.570
  1328G11  H01391018   3.530  10.356  12.516
  1328G11  O00G91019   3.463  10.266  12.689
  1328G11  C0AA91020   3.459  10.161  12.768
  1328G11  C0A991021   3.401  10.196  12.890
  1328G11  H00U91022   3.357  10.293  12.911
  1328G11  C0A891023   3.409  10.104  12.994
  1328G11  H00V91024   3.361  10.137  13.085
  1328G11  C0A791025   3.470   9.973  12.980
  1328G11  C0A691026   3.521   9.944  12.841
  1328G11  C0A591027   3.575   9.822  12.805
  1328G11  C0A491028   3.564   9.708  12.887
  1328G11  C0A391029   3.524   9.672  13.021
  1328G11  C0A291030   3.499   9.759  13.123
  1328G11  C0A191031   3.463   9.718  13.251
  1328G11  C0A091032   3.483   9.594  13.337
  1328G11  C09Z91033   3.445   9.611  13.474
  1328G11  C09Y91034   3.462   9.499  13.563
  1328G11  H00Y91035   3.431   9.505  13.666
  1328G11  C09X91036   3.547   9.394  13.521
  1328G11  C09W91037   3.584   9.303  13.623
  1328G11  H00R91038   3.554   9.313  13.727
  1328G11  C0AX91039   3.685   9.210  13.602
  1328G11  H00S91040   3.708   9.133  13.674
  1328G11  C0AW91041   3.729   9.193  13.467
  1328G11  H00T91042   3.794   9.109  13.448
  1328G11  C0AN91043   3.674   9.269  13.360
  1328G11  C0AO91044   3.700   9.243  13.229
  1328G11  C0AM91045   3.593   9.380  13.390
  1328G11  C0B291046   3.375   9.728  13.537
  1328G11  O00D91047   3.351   9.735  13.652
  1328G11  C0B191048   3.360   9.839  13.450
  1328G11  H00W91049   3.334   9.937  13.487
  1328G11  C0AL91050   3.547   9.478  13.294
  1328G11  C0AK91051   3.574   9.445  13.162
  1328G11  C0B091052   3.406   9.831  13.316
  1328G11  C0AZ91053   3.412   9.942  13.226
  1328G11  H00X91054   3.382  10.041  13.257
  1328G11  C0AJ91055   3.552   9.533  13.049
  1328G11  C0AH91056   3.595   9.586  12.828
  1328G11  C0AE91057   3.632   9.804  12.677
  1328G11  C0AD91058   3.652   9.910  12.588
  1328G11  C0AY91059   3.464   9.893  13.097
  1328G11  C0AB91060   3.527  10.043  12.742
  1328G11  C0AC91061   3.596  10.027  12.620
  1328G11  C0BM91062   3.727   9.997  12.378
  1328G11  C0CM91063   3.693  10.286  12.082
  1328G11  C09M91064   3.791  10.292  11.978
  1328G11  C09891065   3.813  10.419  11.922
  1328G11  C08R91066   3.869  10.460  11.795
  1328G11  C08Q91067   3.869  10.601  11.769
  1328G11  C08P91068   3.844  10.680  11.651
  1328G11  C08Y91069   3.785  10.806  11.679
  1328G11  C09791070   3.740  10.840  11.804
  1328G11  C09691071   3.628  10.921  11.790
  1328G11  C09091072   3.637  10.972  11.657
  1328G11  C09591073   3.550  11.071  11.608
  1328G11  C09491074   3.557  11.123  11.477
  1328G11  C08J91075   3.632  11.081  11.361
  1328G11  C08I91076   3.548  11.099  11.256
  1328G11  C08H91077   3.595  11.012  11.148
  1328G11  C08G91078   3.679  10.907  11.206
  1328G11  C08F91079   3.766  10.792  11.166
  1328G11  C08E91080   3.787  10.773  11.024
  1328G11  C05991081   3.755  10.859  10.913
  1328G11  C05891082   3.794  10.828  10.779
  1328G11  C05791083   3.755  10.897  10.663
  1328G11  C05691084   3.680  11.012  10.687
  1328G11  C05591085   3.666  11.071  10.810
  1328G11  C05491086   3.559  11.166  10.805
  1328G11  C05391087   3.489  11.152  10.676
  1328G11  C05291088   3.360  11.196  10.636
  1328G11  C05191089   3.261  11.259  10.732
  1328G11  C05U91090   3.285  11.281  10.877
  1328G11  C05T91091   3.393  11.245  10.964
  1328G11  C06K91092   3.364  11.307  11.086
  1328G11  H00J91093   3.439  11.308  11.164
  1328G11  C06L91094   3.234  11.365  11.084
  1328G11  H00I91095   3.201  11.434  11.160
  1328G11  C05V91096   3.182  11.344  10.953
  1328G11  C06J91097   3.062  11.380  10.905
  1328G11  H00K91098   2.981  11.426  10.960
  1328G11  C05X91099   3.030  11.357  10.768
  1328G11  C06I91100   2.905  11.392  10.711
  1328G11  H00L91101   2.837  11.441  10.779
  1328G11  C04Z91102   2.873  11.374  10.575
  1328G11  C06H91103   2.750  11.417  10.520
  1328G11  H00H91104   2.681  11.467  10.587
  1328G11  C04Y91105   2.725  11.402  10.381
  1328G11  C06G91106   2.606  11.467  10.329
  1328G11  O00991107   2.527  11.538  10.395
  1328G11  O00891108   2.585  11.440  10.198
  1328G11  C04P91109   2.671  11.375  10.115
  1328G11  C04J91110   2.646  11.330   9.983
  1328G11  C04Q91111   2.534  11.358   9.907
  1328G11  H00E91112   2.454  11.413   9.954
  1328G11  C04M91113   2.513  11.299   9.778
  1328G11  C04R91114   2.388  11.296   9.709
  1328G11  H00F91115   2.302  11.335   9.762
  1328G11  C04S91116   2.384  11.246   9.586
  1328G11  H00G91117   2.283  11.226   9.552
  1328G11  O00791118   2.491  11.214   9.516
  1328G11  C03V91119   2.605  11.184   9.584
  1328G11  C03U91120   2.703  11.112   9.527
  1328G11  O00691121   2.682  11.082   9.394
  1328G11  C03F91122   2.752  10.977   9.344
  1328G11  C03E91123   2.866  10.920   9.409
  1328G11  C03D91124   2.893  10.964   9.541
  1328G11  C03C91125   2.996  10.909   9.618
  1328G11  C03B91126   3.063  10.806   9.553
  1328G11  C03A91127   3.174  10.745   9.615
  1328G11  C03991128   3.229  10.808   9.732
  1328G11  C03891129   3.348  10.727   9.753
  1328G11  C03791130   3.356  10.640   9.638
  1328G11  C03691131   3.466  10.559   9.623
  1328G11  C02R91132   3.469  10.448   9.538
  1328G11  C03591133   3.573  10.374   9.592
  1328G11  C03R91134   3.641  10.430   9.703
  1328G11  C03S91135   3.687  10.357   9.815
  1328G11  C04991136   3.697  10.419   9.943
  1328G11  C04891137   3.635  10.546   9.951
  1328G11  C03P91138   3.548  10.608   9.852
  1328G11  C04791139   3.665  10.611  10.074
  1328G11  C04691140   3.625  10.736  10.125
  1328G11  C04591141   3.524  10.819  10.071
  1328G11  C03T91142   3.441  10.813   9.958
  1328G11  C04491143   3.342  10.910   9.978
  1328G11  C04391144   3.385  11.003  10.078
  1328G11  C04291145   3.277  11.071  10.136
  1328G11  C04191146   3.172  11.048  10.032
  1328G11  C04091147   3.042  11.098  10.038
  1328G11  C03Z91148   2.954  11.112   9.930
  1328G11  C04H91149   2.856  11.208   9.972
  1328G11  C04G91150   2.874  11.239  10.103
  1328G11  C03N91151   2.945  11.064   9.798
  1328G11  C03Y91152   2.832  11.111   9.727
  1328G11  C03X91153   2.732  11.197   9.786
  1328G11  C04F91154   2.989  11.184  10.144
  1328G11  C04E91155   3.033  11.206  10.280
  1328G11  C04O91156   2.940  11.286  10.357
  1328G11  C04D91157   3.160  11.181  10.333
  1328G11  C04V91158   3.186  11.218  10.463
  1328G11  C04W91159   3.093  11.285  10.551
  1328G11  C04C91160   3.277  11.130  10.272
  1328G11  C04L91161   3.383  11.136  10.374
  1328G11  C04U91162   3.512  11.065  10.365
  1328G11  C05Q91163   3.596  11.036  10.470
  1328G11  C05P91164   3.678  10.926  10.442
  1328G11  C04T91165   3.644  10.875  10.318
  1328G11  C04B91166   3.548  10.967  10.271
  1328G11  C03M91167   3.216  10.956   9.931
  1328G11  C04A91168   3.490  10.929  10.149
  1328G11  C05H91169   3.686  10.761  10.247
  1328G11  C05G91170   3.764  10.649  10.281
  1328G11  C05F91171   3.830  10.629  10.405
  1328G11  C05E91172   3.884  10.507  10.454
  1328G11  C05L91173   3.904  10.373  10.405
  1328G11  C05K91174   3.856  10.330  10.278
  1328G11  C05J91175   3.787  10.406  10.171
  1328G11  C06691176   3.882  10.187  10.255
  1328G11  C06591177   3.952  10.105  10.350
  1328G11  C06491178   3.995  10.159  10.473
  1328G11  C06N91179   3.965   9.969  10.326
  1328G11  C06991180   3.916   9.914  10.207
  1328G11  C06P91181   3.927   9.777  10.186
  1328G11  C06R91182   3.874   9.718  10.072
  1328G11  C06B91183   3.813   9.800   9.976
  1328G11  C06S91184   3.753   9.737   9.866
  1328G11  C02G91185   3.686   9.814   9.776
  1328G11  C02F91186   3.627   9.755   9.659
  1328G11  C02791187   3.624   9.613   9.646
  1328G11  C02691188   3.543   9.552   9.550
  1328G11  C00E91189   3.542   9.416   9.537
  1328G11  C00D91190   3.477   9.358   9.433
  1328G11  C00C91191   3.480   9.228   9.424
  1328G11  C00B91192   3.533   9.144   9.511
  1328G11  C01591193   3.608   9.198   9.613
  1328G11  C07F91194   3.671   9.123   9.705
  1328G11  C07E91195   3.746   9.185   9.805
  1328G11  C06W91196   3.747   9.318   9.820
  1328G11  C06V91197   3.678   9.398   9.732
  1328G11  C06X91198   3.816   9.380   9.925
  1328G11  C07B91199   3.889   9.304  10.012
  1328G11  C07C91200   3.889   9.162   9.993
  1328G11  C0FU91201   3.951   9.088  10.091
  1328G11  C0F791202   3.943   8.949  10.083
  1328G11  C0F691203   4.008   8.870  10.178
  1328G11  C0F891204   4.008   8.728  10.165
  1328G11  C0F991205   4.072   8.647  10.260
  1328G11  C0FA91206   4.072   8.510  10.245
  1328G11  C0FZ91207   4.009   8.458  10.141
  1328G11  C0G091208   4.003   8.312  10.130
  1328G11  C0GD91209   4.076   8.231  10.208
  1328G11  C0FC91210   4.152   8.289  10.308
  1328G11  C0GH91211   4.249   8.213  10.384
  1328G11  C0EY91212   4.328   8.276  10.479
  1328G11  C0EX91213   4.421   8.199  10.555
  1328G11  C0EW91214   4.507   8.266  10.644
  1328G11  C0FR91215   4.601   8.190  10.721
  1328G11  H01D91216   4.675   8.230  10.790
  1328G11  C0FS91217   4.617   8.052  10.697
  1328G11  H01C91218   4.698   8.002  10.747
  1328G11  C0GJ91219   4.534   7.992  10.606
  1328G11  H01N91220   4.543   7.885  10.594
  1328G11  C0EV91221   4.500   8.402  10.658
  1328G11  C0FT91222   4.584   8.463  10.753
  1328G11  H01E91223   4.661   8.412  10.808
  1328G11  C0EU91224   4.405   8.473  10.589
  1328G11  C0ET91225   4.385   8.610  10.608
  1328G11  C0EI91226   4.292   8.694  10.549
  1328G11  C0F191227   4.218   8.628  10.444
  1328G11  C0F091228   4.227   8.489  10.427
  1328G11  C0EH91229   4.283   8.831  10.583
  1328G11  C0EG91230   4.347   8.886  10.696
  1328G11  C0EJ91231   4.211   8.912  10.493
  1328G11  C0F391232   4.149   8.851  10.382
  1328G11  C0EK91233   4.213   9.048  10.510
  1328G11  C0EL91234   4.273   9.114  10.625
  1328G11  C0EM91235   4.261   9.256  10.618
  1328G11  C0EN91236   4.202   9.324  10.516
  1328G11  C07I91237   4.196   9.462  10.530
  1328G11  C07491238   4.123   9.542  10.449
  1328G11  C07391239   4.105   9.674  10.484
  1328G11  C07291240   4.044   9.752  10.390
  1328G11  C07591241   4.066   9.475  10.338
  1328G11  C07691242   4.070   9.338  10.323
  1328G11  C07891243   4.015   9.283  10.213
  1328G11  C07G91244   3.997   9.557  10.251
  1328G11  C07091245   3.943   9.500  10.141
  1328G11  C07Z91246   4.243   9.498  10.655
  1328G11  C07791247   4.141   9.257  10.411
  1328G11  C0EO91248   4.147   9.123  10.404
  1328G11  C0F491249   4.082   9.063  10.297
  1328G11  C0EQ91250   4.457   8.666  10.716
  1328G11  C0FQ91251   4.439   8.058  10.533
  1328G11  C0GI91252   4.350   7.998  10.440
  1328G11  H01L91253   4.366   7.894  10.413
  1328G11  C0EZ91254   4.317   8.412  10.502
  1328G11  C0GG91255   4.254   8.070  10.366
  1328G11  C0GF91256   4.169   8.020  10.271
  1328G11  H01M91257   4.169   7.913  10.257
  1328G11  C0GE91258   4.076   8.092  10.196
  1328G11  H01K91259   4.007   8.051  10.123
  1328G11  O00J91260   3.925   8.257  10.032
  1328G11  C0GA91261   3.853   8.335   9.947
  1328G11  C0G991262   3.768   8.271   9.855
  1328G11  H01H91263   3.772   8.163   9.856
  1328G11  C0G891264   3.679   8.342   9.770
  1328G11  C0G791265   3.577   8.286   9.692
  1328G11  H01I91266   3.573   8.178   9.692
  1328G11  O00I91267   3.484   8.363   9.624
  1328G11  C0G691268   3.501   8.501   9.625
  1328G11  H01J91269   3.412   8.553   9.590
  1328G11  C02D91270   3.609   8.563   9.694
  1328G11  C02C91271   3.623   8.701   9.693
  1328G11  C01791272   3.559   8.791   9.594
  1328G11  C01691273   3.579   8.927   9.596
  1328G11  O00191274   3.488   8.736   9.495
  1328G11  C01891275   3.407   8.807   9.411
  1328G11  C00991276   3.428   8.946   9.399
  1328G11  C00891277   3.365   9.043   9.307
  1328G11  C00791278   3.260   9.038   9.207
  1328G11  C00691279   3.180   8.925   9.186
  1328G11  C00591280   3.072   8.929   9.093
  1328G11  C00491281   3.004   9.036   9.019
  1328G11  C00391282   3.028   9.184   9.019
  1328G11  C00291283   2.941   9.267   8.935
  1328G11  C00P91284   2.957   9.407   8.933
  1328G11  C00O91285   2.883   9.493   8.851
  1328G11  C00N91286   2.898   9.634   8.848
  1328G11  C01091287   2.816   9.718   8.783
  1328G11  C01191288   2.835   9.858   8.777
  1328G11  C01Q91289   2.754   9.940   8.697
  1328G11  C01U91290   2.655   9.880   8.622
  1328G11  C01291291   2.637   9.739   8.629
  1328G11  H00091292   2.569   9.686   8.563
  1328G11  C01V91293   2.595   9.968   8.529
  1328G11  H00791294   2.515   9.938   8.464
  1328G11  O00591295   2.618  10.103   8.521
  1328G11  C01W91296   2.717  10.160   8.604
  1328G11  C03191297   2.749  10.295   8.586
  1328G11  C03291298   2.860  10.349   8.652
  1328G11  H00A91299   2.883  10.451   8.628
  1328G11  C03391300   2.929  10.261   8.742
  1328G11  H00B91301   3.013  10.306   8.793
  1328G11  C01O91302   2.889  10.131   8.772
  1328G11  C01N91303   2.948  10.058   8.871
  1328G11  C01M91304   3.037  10.121   8.973
  1328G11  C01L91305   3.078  10.248   9.051
  1328G11  C01K91306   3.185  10.207   9.127
  1328G11  C01Y91307   3.247  10.272   9.239
  1328G11  C02I91308   3.200  10.396   9.274
  1328G11  C02N91309   3.265  10.460   9.383
  1328G11  C02M91310   3.204  10.576   9.434
  1328G11  C02L91311   3.092  10.631   9.372
  1328G11  C02K91312   3.044  10.577   9.250
  1328G11  C02U91313   2.938  10.643   9.183
  1328G11  C02V91314   2.886  10.763   9.235
  1328G11  C03H91315   2.780  10.836   9.162
  1328G11  H00C91316   2.736  10.819   9.065
  1328G11  C02W91317   2.876  10.581   9.076
  1328G11  C02X91318   2.921  10.449   9.046
  1328G11  C02Y91319   2.816  10.404   8.974
  1328G11  H00891320   2.796  10.306   8.934
  1328G11  C02Z91321   2.724  10.511   8.930
  1328G11  O00491322   2.645  10.512   8.839
  1328G11  O00391323   2.763  10.616   9.005
  1328G11  C02J91324   3.090  10.452   9.205
  1328G11  C01Z91325   3.345  10.199   9.308
  1328G11  C02091326   3.349  10.058   9.300
  1328G11  C01I91327   3.283   9.996   9.201
  1328G11  C01H91328   3.267   9.863   9.196
  1328G11  C00K91329   3.181   9.804   9.103
  1328G11  C01S91330   3.104   9.880   9.020
  1328G11  C01491331   3.003   9.831   8.946
  1328G11  C00J91332   3.165   9.661   9.099
  1328G11  C00I91333   3.246   9.587   9.181
  1328G11  C00H91334   3.340   9.648   9.267
  1328G11  C00G91335   3.413   9.569   9.354
  1328G11  C00S91336   3.238   9.455   9.171
  1328G11  C00T91337   3.325   9.385   9.252
  1328G11  C00U91338   3.312   9.250   9.248
  1328G11  C00R91339   3.148   9.388   9.085
  1328G11  C00L91340   3.072   9.605   9.015
  1328G11  C02891341   3.343   9.782   9.282
  1328G11  C02391342   3.421   9.847   9.375
  1328G11  C02491343   3.494   9.768   9.464
  1328G11  C02191344   3.426   9.984   9.387
  1328G11  C02291345   3.496  10.042   9.487
  1328G11  C02H91346   3.566   9.967   9.576
  1328G11  C03091347   3.628  10.028   9.687
  1328G11  C03491348   3.643  10.164   9.688
  1328G11  C02P91349   3.498  10.180   9.488
  1328G11  C02B91350   3.409  10.262   9.412
  1328G11  C01J91351   3.215  10.072   9.107
  1328G11  C01X91352   3.023  10.374   9.097
  1328G11  C01T91353   3.125  10.020   9.017
  1328G11  H00991354   2.695  10.366   8.524
  1328G11  C01P91355   2.783  10.079   8.699
  1328G11  C01R91356   2.925   9.917   8.868
  1328G11  C00Z91357   2.719   9.660   8.702
  1328G11  O00091358   2.692   9.526   8.706
  1328G11  C00M91359   2.993   9.692   8.937
  1328G11  C00Y91360   2.780   9.442   8.775
  1328G11  C01391361   2.752   9.306   8.784
  1328G11  H00191362   2.668   9.265   8.729
  1328G11  C00Q91363   3.059   9.469   9.010
  1328G11  C00191364   2.840   9.215   8.854
  1328G11  C00091365   2.822   9.074   8.864
  1328G11  H00691366   2.733   9.034   8.817
  1328G11  C00W91367   3.128   9.246   9.090
  1328G11  C01G91368   2.904   8.990   8.936
  1328G11  H00591369   2.868   8.889   8.934
  1328G11  C01C91370   3.037   8.790   9.093
  1328G11  H00291371   2.954   8.747   9.040
  1328G11  C01B91372   3.128   8.717   9.180
  1328G11  C01D91373   3.113   8.579   9.207
  1328G11  H00391374   3.030   8.533   9.155
  1328G11  C01E91375   3.199   8.523   9.293
  1328G11  H00491376   3.189   8.420   9.325
  1328G11  O00291377   3.295   8.605   9.356
  1328G11  C01A91378   3.213   8.800   9.242
  1328G11  C00V91379   3.226   9.172   9.170
  1328G11  C01991380   3.302   8.740   9.335
  1328G11  C02E91381   3.706   8.764   9.784
  1328G11  C0FX91382   3.782   8.689   9.868
  1328G11  C0FW91383   3.866   8.748   9.966
  1328G11  C0GB91384   3.781   8.553   9.861
  1328G11  C0G391385   3.723   8.903   9.788
  1328G11  C07H91386   3.805   8.966   9.881
  1328G11  C0GC91387   3.692   8.484   9.772
  1328G11  C0G291388   3.857   8.478   9.951
  1328G11  C0G191389   3.934   8.536  10.053
  1328G11  C0FB91390   4.147   8.427  10.329
  1328G11  C0F291391   4.152   8.711  10.358
  1328G11  C0FY91392   3.931   8.668  10.063
  1328G11  C0F591393   4.082   8.926  10.286
  1328G11  C0FV91394   3.870   8.887   9.977
  1328G11  C07991395   4.015   9.143  10.202
  1328G11  C07A91396   3.953   9.362  10.120
  1328G11  C06Y91397   3.814   9.519   9.941
  1328G11  C07D91398   3.819   9.102   9.887
  1328G11  C01F91399   3.661   8.983   9.695
  1328G11  C00A91400   3.513   9.003   9.497
  1328G11  C00X91401   3.402   9.172   9.320
  1328G11  C00F91402   3.408   9.434   9.344
  1328G11  C02991403   3.611   9.339   9.627
  1328G11  C02591404   3.481   9.630   9.457
  1328G11  C06U91405   3.691   9.534   9.737
  1328G11  C02A91406   3.569   9.829   9.562
  1328G11  C05Y91407   3.691   9.948   9.783
  1328G11  C05Z91408   3.749  10.009   9.894
  1328G11  C06091409   3.738  10.146   9.910
  1328G11  C06291410   3.781  10.212  10.031
  1328G11  C06T91411   3.752   9.598   9.849
  1328G11  C06A91412   3.808   9.938   9.992
  1328G11  C06Z91413   3.881   9.578  10.047
  1328G11  C06Q91414   3.987   9.695  10.278
  1328G11  C06891415   3.857   9.996  10.114
  1328G11  C06791416   3.840  10.132  10.136
  1328G11  C06391417   3.961  10.287  10.508
  1328G11  C06C91418   3.971  10.319  10.646
  1328G11  C06D91419   3.939  10.445  10.694
  1328G11  C06E91420   3.934  10.490  10.825
  1328G11  C07Q91421   3.972  10.401  10.922
  1328G11  C07P91422   4.022  10.276  10.879
  1328G11  C07T91423   4.066  10.189  10.975
  1328G11  C07U91424   4.114  10.061  10.938
  1328G11  C07V91425   4.148   9.971  11.035
  1328G11  C08491426   4.131  10.008  11.169
  1328G11  C08C91427   4.084  10.131  11.207
  1328G11  C08B91428   4.059  10.158  11.341
  1328G11  C08A91429   4.006  10.283  11.370
  1328G11  C08991430   3.968  10.378  11.283
  1328G11  C08891431   3.914  10.500  11.323
  1328G11  C08791432   3.879  10.594  11.228
  1328G11  C08691433   3.894  10.564  11.094
  1328G11  C08X91434   3.886  10.525  11.462
  1328G11  C08T91435   3.912  10.414  11.553
  1328G11  C08D91436   3.993  10.349  11.152
  1328G11  C08U91437   3.969  10.299  11.501
  1328G11  C08V91438   3.985  10.201  11.594
  1328G11  C0CY91439   4.044  10.080  11.566
  1328G11  C0CX91440   4.041   9.990  11.664
  1328G11  C0CW91441   4.087   9.865  11.631
  1328G11  C0CV91442   4.145   9.844  11.507
  1328G11  C0D491443   4.133   9.942  11.409
  1328G11  C0CU91444   4.188   9.716  11.475
  1328G11  C0CT91445   4.195   9.612  11.566
  1328G11  C0CS91446   4.137   9.635  11.693
  1328G11  C0D691447   4.214   9.700  11.341
  1328G11  C0EC91448   4.199   9.790  11.235
  1328G11  C07X91449   4.228   9.757  11.099
  1328G11  C0DL91450   4.265   9.575  11.307
  1328G11  C0DK91451   4.299   9.548  11.177
  1328G11  C0DN91452   4.345   9.424  11.173
  1328G11  C0D891453   4.296   9.470  11.395
  1328G11  C08W91454   3.926  10.239  11.712
  1328G11  C0CQ91455   3.929  10.142  11.820
  1328G11  C09391456   4.082  10.061  11.437
  1328G11  C09291457   4.160   9.915  11.273
  1328G11  C08591458   4.051  10.223  11.112
  1328G11  C07S91459   3.949  10.438  11.056
  1328G11  C06F91460   3.883  10.615  10.861
  1328G11  C07O91461   4.023  10.231  10.743
  1328G11  C07N91462   4.071  10.110  10.708
  1328G11  C05D91463   3.913  10.534  10.590
  1328G11  C05C91464   3.869  10.659  10.628
  1328G11  C05N91465   3.821  10.722  10.516
  1328G11  C05M91466   3.746  10.547  10.180
  1328G11  C05I91467   3.752  10.348  10.050
  1328G11  C06191468   3.695  10.222   9.804
  1328G11  C02Q91469   3.577  10.233   9.587
  1328G11  C02O91470   3.377  10.392   9.439
  1328G11  C03Q91471   3.559  10.541   9.725
  1328G11  C03O91472   3.444  10.711   9.864
  1328G11  C03L91473   3.160  10.911   9.805
  1328G11  C02S91474   3.249  10.645   9.555
  1328G11  C02T91475   3.029  10.745   9.430
  1328G11  C03K91476   3.034  10.963   9.745
  1328G11  C03I91477   2.927  10.809   9.356
  1328G11  C03G91478   2.718  10.940   9.220
  1328G11  H00D91479   2.646  10.991   9.158
  1328G11  C03J91480   2.813  11.063   9.595
  1328G11  C03W91481   2.622  11.234   9.714
  1328G11  C04I91482   2.738  11.245   9.917
  1328G11  C04K91483   2.782  11.318  10.174
  1328G11  C04N91484   2.813  11.328  10.307
  1328G11  C04X91485   2.969  11.312  10.497
  1328G11  C05091486   3.133  11.305  10.683
  1328G11  C05W91487   3.317  11.179  10.498
  1328G11  C05S91488   3.506  11.155  10.932
  1328G11  C05R91489   3.588  11.073  10.599
  1328G11  C05O91490   3.756  10.850  10.534
  1328G11  C05B91491   3.849  10.703  10.761
  1328G11  C05A91492   3.677  10.983  10.920
  1328G11  C07R91493   3.855  10.651  10.996
  1328G11  C08N91494   3.812  10.707  11.269
  1328G11  C08M91495   3.801  10.740  11.406
  1328G11  C08L91496   3.738  10.866  11.442
  1328G11  C09191497   3.586  11.049  11.008
  1328G11  C09K91498   3.411  11.115  11.300
  1328G11  H00M91499   3.323  11.095  11.240
  1328G11  C08K91500   3.690  10.952  11.338
  1328G11  C09J91501   3.420  11.151  11.439
  1328G11  C09I91502   3.340  11.157  11.555
  1328G11  C09L91503   3.210  11.200  11.575
  1328G11  H00N91504   3.153  11.256  11.502
  1328G11  C09Q91505   3.162  11.175  11.698
  1328G11  H00O91506   3.063  11.210  11.722
  1328G11  O00B91507   3.230  11.120  11.801
  1328G11  C09G91508   3.358  11.073  11.782
  1328G11  C09F91509   3.408  11.003  11.890
  1328G11  O00A91510   3.321  11.001  11.993
  1328G11  C09P91511   3.344  10.913  12.096
  1328G11  H00P91512   3.323  10.947  12.197
  1328G11  C09O91513   3.414  10.794  12.075
  1328G11  C09D91514   3.528  10.810  11.986
  1328G11  C09C91515   3.647  10.729  11.989
  1328G11  C09N91516   3.670  10.597  12.041
  1328G11  C09T91517   3.567  10.510  12.079
  1328G11  C09S91518   3.435  10.548  12.123
  1328G11  C0CP91519   3.376  10.427  12.158
  1328G11  C0CN91520   3.456  10.314  12.139
  1328G11  C0CO91521   3.400  10.187  12.146
  1328G11  H01491522   3.460  10.099  12.131
  1328G11  C0CZ91523   3.267  10.184  12.187
  1328G11  H01591524   3.215  10.090  12.192
  1328G11  C0D091525   3.186  10.297  12.221
  1328G11  C0G591526   3.054  10.292  12.279
  1328G11  H01F91527   2.990  10.209  12.305
  1328G11  C0G491528   2.998  10.414  12.313
  1328G11  H01G91529   2.892  10.414  12.337
  1328G11  O00H91530   3.047  10.542  12.288
  1328G11  C0D291531   3.172  10.544  12.231
  1328G11  C09V91532   3.230  10.659  12.186
  1328G11  H00Q91533   3.171  10.748  12.201
  1328G11  C0D191534   3.242  10.429  12.202
  1328G11  C09R91535   3.365  10.671  12.129
  1328G11  C09H91536   3.415  11.092  11.655
  1328G11  C09E91537   3.525  10.921  11.888
  1328G11  C09B91538   3.757  10.752  11.907
  1328G11  C08Z91539   3.717  10.880  11.583
  1328G11  C08O91540   3.845  10.649  11.511
  1328G11  C09A91541   3.850  10.650  11.898
  1328G11  C08S91542   3.877  10.374  11.690
  1328G11  C09991543   3.796  10.546  11.983
  1328G11  C09U91544   3.577  10.365  12.098
  1328G11  C0BO91545   3.784   9.976  12.251
  1328G11  C0CL91546   3.859  10.168  11.944
  1328G11  C0D391547   3.977  10.015  11.788
  1328G11  C0D591548   4.090   9.762  11.724
  1328G11  C0BR91549   3.897   9.834  12.092
  1328G11  C0BQ91550   3.829   9.849  12.215
  1328G11  C0BL91551   3.719   9.894  12.462
  1328G11  C0AF91552   3.683   9.680  12.641
  1328G11  C0BH91553   3.873   9.522  12.371
  1328G11  C0BG91554   3.936   9.400  12.345
  1328G11  C0BD91555   3.851   9.304  12.548
  1328G11  C0AG91556   3.661   9.564  12.711
  1328G11  C0AI91557   3.587   9.483  12.923
  1328G11  C0AV91558   3.637   9.324  13.129
  1328G11  C0BB91559   3.737   9.111  12.841
  1328G11  O00C91560   3.790   9.143  13.196
  1328G11  C0BC91561   3.832   9.012  12.856
  1328G11  C0B991562   3.837   9.195  12.637
  1328G11  O00E91563   4.127   9.002  12.527
  1328G11  C0CA91564   4.197   8.974  12.406
  1328G11  O00F91565   4.273   8.878  12.402
  1328G11  C0BF91566   3.936   9.301  12.444
  1328G11  C0C591567   4.164   9.061  12.296
  1328G11  C0C491568   4.229   9.028  12.172
  1328G11  H01191569   4.282   8.936  12.155
  1328G11  C0C891570   4.004   9.383  12.230
  1328G11  C0C291571   4.204   9.131  12.066
  1328G11  C0C391572   4.255   9.110  11.935
  1328G11  C0DY91573   4.335   9.008  11.897
  1328G11  H01691574   4.355   8.918  11.954
  1328G11  C0DX91575   4.369   9.032  11.754
  1328G11  C0DW91576   4.364   8.912  11.676
  1328G11  C0BY91577   4.066   9.467  12.006
  1328G11  C0DB91578   4.242   9.204  11.833
  1328G11  C0CC91579   4.130   9.537  11.784
  1328G11  C0D791580   4.254   9.487  11.534
  1328G11  C0DZ91581   4.308   9.164  11.717
  1328G11  C0DM91582   4.351   9.369  11.309
  1328G11  C0DQ91583   4.362   9.025  11.449
  1328G11  C0DV91584   4.359   8.915  11.531
  1328G11  C0E091585   4.370   8.775  11.708
  1328G11  C0FO91586   4.543   8.532  11.520
  1328G11  C0E391587   4.456   8.708  11.802
  1328G11  H01791588   4.515   8.758  11.877
  1328G11  C0GV91589   4.635   8.472  11.605
  1328G11  C0ES91590   4.579   8.572  11.391
  1328G11  C0GQ91591   4.920   8.434  11.387
  1328G11  C0FJ91592   4.903   8.528  11.030
  1328G11  C0ED91593   4.663   8.642  11.122
  1328G11  C0ER91594   4.555   8.598  10.785
  1328G11  C0EP91595   4.428   8.787  10.766
  1328G11  C0E691596   4.485   8.824  11.135
  1328G11  C0DE91597   4.414   9.127  11.081
  1328G11  C0EA91598   4.330   9.029  10.725
  1328G11  C0DF91599   4.437   9.250  11.015
  1328G11  C08091600   4.295   9.367  10.703
  1328G11  C0DO91601   4.373   9.371  11.049
  1328G11  C0DJ91602   4.271   9.634  11.070
  1328G11  C07K91603   4.210   9.633  10.704
  1328G11  C07W91604   4.198   9.848  11.000
  1328G11  C08391605   4.114  10.021  10.802
  1328G11  C07J91606   4.151   9.717  10.607
  1328G11  C06O91607   4.033   9.884  10.418
  1328G11  C06M91608   4.055  10.069  10.571
  1338G11  C07191609   1.484   9.004  14.218
  1338G11  C07L91610   1.613   9.057  14.186
  1338G11  C07M91611   1.630   9.116  14.064
  1338G11  C07Y91612   1.757   9.174  14.028
  1338G11  C08191613   1.866   9.159  14.122
  1338G11  C08291614   1.984   9.234  14.094
  1338G11  C0DI91615   2.102   9.263  14.171
  1338G11  C0DH91616   2.153   9.214  14.294
  1338G11  C0DG91617   2.275   9.282  14.338
  1338G11  C0E991618   2.391   9.226  14.401
  1338G11  C0E891619   2.505   9.267  14.320
  1338G11  C0E791620   2.648   9.214  14.334
  1338G11  C0EB91621   2.692   9.159  14.454
  1338G11  C0EF91622   2.817   9.107  14.485
  1338G11  C0EE91623   2.897   9.027  14.401
  1338G11  C0FD91624   2.943   8.899  14.446
  1338G11  C0FE91625   2.883   8.816  14.544
  1338G11  H01B91626   2.792   8.847  14.592
  1338G11  C0FF91627   2.931   8.688  14.573
  1338G11  H01A91628   2.877   8.639  14.652
  1338G11  C0FG91629   3.042   8.642  14.508
  1338G11  H01891630   3.079   8.545  14.539
  1338G11  C0FH91631   3.100   8.711  14.401
  1338G11  C0FI91632   3.201   8.653  14.320
  1338G11  H01991633   3.247   8.561  14.355
  1338G11  O00K91634   3.241   8.705  14.200
  1338G11  C0FL91635   3.196   8.835  14.179
  1338G11  C0FK91636   3.096   8.904  14.257
  1338G11  C0FM91637   3.051   9.030  14.218
  1338G11  C0FN91638   3.108   9.096  14.106
  1338G11  C0FP91639   3.203   9.024  14.028
  1338G11  C0GO91640   3.240   9.067  13.904
  1338G11  C0GN91641   3.306   8.996  13.807
  1338G11  C0GR91642   3.349   8.863  13.847
  1338G11  C0GS91643   3.408   8.779  13.750
  1338G11  H01Q91644   3.438   8.678  13.772
  1338G11  C0GT91645   3.422   8.821  13.622
  1338G11  H01O91646   3.473   8.764  13.546
  1338G11  C0GU91647   3.377   8.951  13.583
  1338G11  H01P91648   3.383   8.984  13.481
  1338G11  O00L91649   3.329   8.821  13.976
  1338G11  C0GM91650   3.317   9.040  13.678
  1338G11  C0GL91651   3.264   9.167  13.644
  1338G11  H01R91652   3.269   9.199  13.541
  1338G11  C0GK91653   3.217   9.256  13.743
  1338G11  C0GP91654   3.149   9.381  13.754
  1338G11  C0E291655   3.140   9.414  13.896
  1338G11  C0E191656   3.037   9.508  13.914
  1338G11  C0DU91657   2.908   9.472  13.978
  1338G11  C0DT91658   2.891   9.384  14.089
  1338G11  C0E491659   2.967   9.279  14.135
  1338G11  C0E591660   2.894   9.207  14.231
  1338G11  C0DS91661   2.755   9.358  14.135
  1338G11  C0DR91662   2.647   9.418  14.064
  1338G11  C0DD91663   2.514   9.408  14.087
  1338G11  C0DC91664   2.451   9.474  13.967
  1338G11  C0DP91665   2.551   9.523  13.874
  1338G11  C0DA91666   2.528   9.589  13.742
  1338G11  C0D991667   2.403   9.611  13.654
  1338G11  C0CR91668   2.413   9.683  13.527
  1338G11  C0C091669   2.527   9.743  13.485
  1338G11  C0BZ91670   2.542   9.812  13.364
  1338G11  C0C191671   2.668   9.874  13.331
  1338G11  C0C791672   2.678   9.950  13.216
  1338G11  C0C691673   2.797  10.015  13.182
  1338G11  C0C991674   2.805  10.085  13.063
  1338G11  C0B891675   2.927  10.150  13.037
  1338G11  C0B791676   2.940  10.228  12.918
  1338G11  C0B691677   3.044  10.324  12.876
  1338G11  C0B591678   3.123  10.409  12.969
  1338G11  H00Z91679   3.134  10.373  13.071
  1338G11  C0B491680   3.141  10.534  12.896
  1338G11  H01091681   3.173  10.634  12.922
  1338G11  C0B391682   3.102  10.520  12.762
  1338G11  C0AP91683   3.029  10.602  12.663
  1338G11  C0AQ91684   2.930  10.509  12.613
  1338G11  C0AR91685   2.807  10.556  12.562
  1338G11  C0AS91686   2.713  10.462  12.569
  1338G11  C0AT91687   2.714  10.347  12.648
  1338G11  C0BA91688   2.827  10.315  12.713
  1338G11  C0AU91689   2.595  10.283  12.683
  1338G11  C0BE91690   2.592  10.194  12.788
  1338G11  C0BI91691   2.468  10.145  12.830
  1338G11  C0BJ91692   2.351  10.192  12.767
  1338G11  C0BK91693   2.232  10.130  12.796
  1338G11  C0BW91694   2.227  10.035  12.901
  1338G11  C0BV91695   2.339  10.006  12.976
  1338G11  C0BU91696   2.333   9.927  13.089
  1338G11  C0BX91697   2.443   9.911  13.171
  1338G11  C0BT91698   2.211   9.869  13.117
  1338G11  C0CD91699   2.199   9.793  13.236
  1338G11  C0CB91700   2.309   9.779  13.322
  1338G11  C0CE91701   2.081   9.728  13.264
  1338G11  C0CK91702   1.972   9.738  13.173
  1338G11  C0BS91703   1.980   9.814  13.063
  1338G11  C0CJ91704   1.872   9.824  12.971
  1338G11  C0BP91705   1.883   9.908  12.855
  1338G11  C0CI91706   1.776   9.918  12.763
  1338G11  C0CH91707   1.791  10.016  12.662
  1338G11  H01291708   1.718  10.022  12.582
  1338G11  C0BN91709   1.901  10.107  12.651
  1338G11  C0CG91710   1.896  10.217  12.568
  1338G11  C0CF91711   1.783  10.255  12.495
  1338G11  H01391712   1.687  10.206  12.505
  1338G11  O00G91713   1.772  10.370  12.418
  1338G11  C0AA91714   1.884  10.446  12.410
  1338G11  C0A991715   1.875  10.553  12.317
  1338G11  H00U91716   1.788  10.564  12.255
  1338G11  C0A891717   1.989  10.639  12.304
  1338G11  H00V91718   1.995  10.721  12.233
  1338G11  C0A791719   2.109  10.615  12.380
  1338G11  C0A691720   2.121  10.493  12.457
  1338G11  C0A591721   2.237  10.442  12.516
  1338G11  C0A491722   2.367  10.502  12.490
  1338G11  C0A391723   2.421  10.623  12.431
  1338G11  C0A291724   2.341  10.734  12.411
  1338G11  C0A191725   2.400  10.861  12.384
  1338G11  C0A091726   2.533  10.926  12.387
  1338G11  C09Z91727   2.530  11.060  12.343
  1338G11  C09Y91728   2.650  11.139  12.357
  1338G11  H00Y91729   2.660  11.238  12.315
  1338G11  C09X91730   2.771  11.083  12.408
  1338G11  C09W91731   2.879  11.174  12.422
  1338G11  H00R91732   2.867  11.278  12.396
  1338G11  C0AX91733   2.999  11.129  12.474
  1338G11  H00S91734   3.089  11.188  12.482
  1338G11  C0AW91735   3.007  10.995  12.513
  1338G11  H00T91736   3.105  10.964  12.546
  1338G11  C0AN91737   2.895  10.905  12.508
  1338G11  C0AO91738   2.901  10.774  12.554
  1338G11  C0AM91739   2.775  10.947  12.446
  1338G11  C0B291740   2.417  11.135  12.295
  1338G11  O00D91741   2.428  11.257  12.272
  1338G11  C0B191742   2.297  11.064  12.297
  1338G11  H00W91743   2.208  11.126  12.290
  1338G11  C0AL91744   2.658  10.866  12.426
  1338G11  C0AK91745   2.675  10.731  12.465
  1338G11  C0B091746   2.288  10.933  12.342
  1338G11  C0AZ91747   2.165  10.860  12.342
  1338G11  H00X91748   2.064  10.890  12.319
  1338G11  C0AJ91749   2.562  10.632  12.463
  1338G11  C0AH91750   2.477  10.432  12.539
  1338G11  C0AE91751   2.241  10.335  12.606
  1338G11  C0AD91752   2.126  10.265  12.627
  1338G11  C0AY91753   2.201  10.725  12.374
  1338G11  C0AB91754   2.006  10.417  12.481
  1338G11  C0AC91755   2.006  10.300  12.561
  1338G11  C0BM91756   2.007  10.080  12.737
  1338G11  C0CM91757   1.675   9.821  12.767
  1338G11  C09M91758   1.644   9.765  12.895
  1338G11  C09891759   1.501   9.757  12.924
  1338G11  C08R91760   1.429   9.691  13.027
  1338G11  C08Q91761   1.286   9.703  13.025
  1338G11  C08P91762   1.172   9.633  13.073
  1338G11  C08Y91763   1.057   9.655  12.997
  1338G11  C09791764   1.059   9.710  12.867
  1338G11  C09691765   0.976   9.641  12.783
  1338G11  C09091766   0.878   9.592  12.871
  1338G11  C09591767   0.765   9.513  12.831
  1338G11  C09491768   0.674   9.462  12.932
  1338G11  C08J91769   0.679   9.459  13.074
  1338G11  C08I91770   0.599   9.349  13.117
  1338G11  C08H91771   0.637   9.307  13.253
  1338G11  C08G91772   0.777   9.342  13.255
  1338G11  C08F91773   0.895   9.302  13.330
  1338G11  C08E91774   0.879   9.224  13.449
  1338G11  C05991775   0.768   9.140  13.482
  1338G11  C05891776   0.763   9.062  13.593
  1338G11  C05791777   0.654   8.994  13.651
  1338G11  C05691778   0.532   9.004  13.581
  1338G11  C05591779   0.528   9.065  13.461
  1338G11  C05491780   0.398   9.111  13.441
  1338G11  C05391781   0.321   9.076  13.560
  1338G11  C05291782   0.189   9.121  13.607
  1338G11  C05191783   0.113   9.227  13.531
  1338G11  C05U91784   0.166   9.305  13.418
  1338G11  C05T91785   0.289   9.312  13.345
  1338G11  C06K91786   0.274   9.414  13.239
  1338G11  H00J91787   0.353   9.448  13.174
  1338G11  C06L91788   0.140   9.470  13.244
  1338G11  H00I91789   0.095   9.541  13.176
  1338G11  C05V91790   0.076   9.399  13.356
  1338G11  C06J91791  -0.046   9.426  13.401
  1338G11  H00K91792  -0.101   9.507  13.356
  1338G11  C05X91793  -0.095   9.362  13.515
  1338G11  C06I91794  -0.228   9.385  13.570
  1338G11  H00L91795  -0.286   9.453  13.509
  1338G11  C04Z91796  -0.279   9.329  13.686
  1338G11  C06H91797  -0.414   9.345  13.724
  1338G11  H00H91798  -0.489   9.401  13.670
  1338G11  C04Y91799  -0.447   9.303  13.858
  1338G11  C06G91800  -0.584   9.328  13.900
  1338G11  O00991801  -0.671   9.382  13.841
  1338G11  O00891802  -0.614   9.288  14.029
  1338G11  C04P91803  -0.525   9.217  14.109
  1338G11  C04J91804  -0.555   9.179  14.243
  1338G11  C04Q91805  -0.668   9.200  14.317
  1338G11  H00E91806  -0.738   9.263  14.263
  1338G11  C04M91807  -0.688   9.161  14.451
  1338G11  C04R91808  -0.798   9.191  14.527
  1338G11  H00F91809  -0.890   9.235  14.490
  1338G11  C04S91810  -0.802   9.159  14.663
  1338G11  H00G91811  -0.896   9.174  14.715
  1338G11  O00791812  -0.697   9.093  14.724
  1338G11  C03V91813  -0.585   9.070  14.653
  1338G11  C03U91814  -0.475   9.017  14.717
  1338G11  O00691815  -0.487   8.988  14.850
  1338G11  C03F91816  -0.381   8.946  14.921
  1338G11  C03E91817  -0.260   8.910  14.856
  1338G11  C03D91818  -0.245   8.928  14.717
  1338G11  C03C91819  -0.128   8.893  14.657
  1338G11  C03B91820  -0.025   8.847  14.741
  1338G11  C03A91821   0.088   8.786  14.680
  1338G11  C03991822   0.103   8.785  14.536
  1338G11  C03891823   0.237   8.726  14.525
  1338G11  C03791824   0.270   8.679  14.655
  1338G11  C03691825   0.385   8.623  14.673
  1338G11  C02R91826   0.446   8.584  14.790
  1338G11  C03591827   0.579   8.553  14.755
  1338G11  C03R91828   0.603   8.572  14.617
  1338G11  C03S91829   0.725   8.632  14.576
  1338G11  C04991830   0.723   8.699  14.455
  1338G11  C04891831   0.596   8.714  14.390
  1338G11  C03P91832   0.467   8.686  14.448
  1338G11  C04791833   0.607   8.765  14.259
  1338G11  C04691834   0.506   8.772  14.168
  1338G11  C04591835   0.365   8.763  14.177
  1338G11  C03T91836   0.285   8.761  14.287
  1338G11  C04491837   0.151   8.780  14.242
  1338G11  C04391838   0.147   8.785  14.099
  1338G11  C04291839   0.062   8.896  14.066
  1338G11  C04191840  -0.012   8.925  14.191
  1338G11  C04091841  -0.126   9.009  14.201
  1338G11  C03Z91842  -0.224   9.011  14.308
  1338G11  C04H91843  -0.334   9.082  14.257
  1338G11  C04G91844  -0.306   9.116  14.127
  1338G11  C03N91845  -0.227   8.968  14.447
  1338G11  C03Y91846  -0.343   9.010  14.517
  1338G11  C03X91847  -0.455   9.071  14.449
  1338G11  C04F91848  -0.183   9.079  14.091
  1338G11  C04E91849  -0.146   9.114  13.960
  1338G11  C04O91850  -0.237   9.197  13.882
  1338G11  C04D91851  -0.035   9.064  13.895
  1338G11  C04V91852   0.005   9.126  13.771
  1338G11  C04W91853  -0.069   9.217  13.699
  1338G11  C04C91854   0.049   8.956  13.930
  1338G11  C04L91855   0.154   8.964  13.824
  1338G11  C04U91856   0.285   8.903  13.838
  1338G11  C05Q91857   0.397   8.931  13.763
  1338G11  C05P91858   0.518   8.896  13.825
  1338G11  C04T91859   0.485   8.847  13.949
  1338G11  C04B91860   0.344   8.838  13.951
  1338G11  C03M91861   0.042   8.854  14.307
  1338G11  C04A91862   0.285   8.793  14.066
  1338G11  C05H91863   0.569   8.813  14.052
  1338G11  C05G91864   0.704   8.829  14.073
  1338G11  C05F91865   0.800   8.873  13.979
  1338G11  C05E91866   0.927   8.924  14.004
  1338G11  C05L91867   1.022   8.912  14.107
  1338G11  C05K91868   0.993   8.858  14.231
  1338G11  C05J91869   0.865   8.799  14.275
  1338G11  C06691870   1.102   8.847  14.322
  1338G11  C06591871   1.229   8.902  14.287
  1338G11  C06491872   1.251   8.961  14.164
  1338G11  C06N91873   1.336   8.891  14.377
  1338G11  C06991874   1.319   8.826  14.500
  1338G11  C06P91875   1.422   8.831  14.596
  1338G11  C06R91876   1.408   8.781  14.727
  1338G11  C06B91877   1.282   8.726  14.758
  1338G11  C06S91878   1.261   8.682  14.890
  1338G11  C02G91879   1.139   8.629  14.930
  1338G11  C02F91880   1.122   8.605  15.065
  1338G11  C02791881   1.228   8.605  15.157
  1338G11  C02691882   1.202   8.582  15.291
  1338G11  C00E91883   1.301   8.600  15.382
  1338G11  C00D91884   1.274   8.585  15.515
  1338G11  C00C91885   1.370   8.614  15.605
  1338G11  C00B91886   1.495   8.659  15.574
  1338G11  C01591887   1.525   8.676  15.441
  1338G11  C07F91888   1.650   8.720  15.401
  1338G11  C07E91889   1.676   8.742  15.267
  1338G11  C06W91890   1.574   8.724  15.174
  1338G11  C06V91891   1.448   8.674  15.211
  1338G11  C06X91892   1.593   8.755  15.039
  1338G11  C07B91893   1.721   8.802  15.003
  1338G11  C07C91894   1.826   8.813  15.096
  1338G11  C0FU91895   1.952   8.859  15.057
  1338G11  C0F791896   2.051   8.877  15.151
  1338G11  C0F691897   2.172   8.934  15.105
  1338G11  C0F891898   2.272   8.957  15.199
  1338G11  C0F991899   2.394   9.015  15.156
  1338G11  C0FA91900   2.495   9.027  15.251
  1338G11  C0FZ91901   2.474   8.989  15.388
  1338G11  C0G091902   2.579   9.009  15.482
  1338G11  C0GD91903   2.703   9.052  15.443
  1338G11  C0FC91904   2.728   9.071  15.303
  1338G11  C0GH91905   2.860   9.105  15.265
  1338G11  C0EY91906   2.884   9.126  15.124
  1338G11  C0EX91907   3.020   9.157  15.078
  1338G11  C0EW91908   3.041   9.166  14.935
  1338G11  C0FR91909   3.168   9.194  14.888
  1338G11  H01D91910   3.181   9.212  14.782
  1338G11  C0FS91911   3.274   9.213  14.975
  1338G11  H01C91912   3.369   9.245  14.935
  1338G11  C0GJ91913   3.252   9.200  15.110
  1338G11  H01N91914   3.337   9.207  15.175
  1338G11  C0EV91915   2.937   9.142  14.846
  1338G11  C0FT91916   2.963   9.128  14.708
  1338G11  H01E91917   3.059   9.116  14.660
  1338G11  C0EU91918   2.803   9.127  14.894
  1338G11  C0ET91919   2.695   9.126  14.811
  1338G11  C0EI91920   2.564   9.110  14.850
  1338G11  C0F191921   2.544   9.086  14.987
  1338G11  C0F091922   2.648   9.090  15.078
  1338G11  C0EH91923   2.460   9.109  14.752
  1338G11  C0EG91924   2.483   9.138  14.613
  1338G11  C0EJ91925   2.336   9.065  14.792
  1338G11  C0F391926   2.316   9.026  14.929
  1338G11  C0EK91927   2.235   9.039  14.698
  1338G11  C0EL91928   2.252   9.090  14.564
  1338G11  C0EM91929   2.138   9.057  14.481
  1338G11  C0EN91930   2.029   8.994  14.535
  1338G11  C07I91931   1.924   8.990  14.446
  1338G11  C07491932   1.795   8.957  14.486
  1338G11  C07391933   1.697   8.979  14.396
  1338G11  C07291934   1.566   8.939  14.434
  1338G11  C07591935   1.785   8.906  14.613
  1338G11  C07691936   1.890   8.908  14.707
  1338G11  C07891937   1.865   8.876  14.837
  1338G11  C07G91938   1.655   8.870  14.649
  1338G11  C07091939   1.639   8.824  14.779
  1338G11  C07Z91940   1.954   9.067  14.334
  1338G11  C07791941   2.015   8.955  14.670
  1338G11  C0EO91942   2.117   8.980  14.751
  1338G11  C0F491943   2.095   8.946  14.882
  1338G11  C0EQ91944   2.721   9.142  14.677
  1338G11  C0FQ91945   3.129   9.173  15.166
  1338G11  C0GI91946   3.099   9.160  15.300
  1338G11  H01L91947   3.183   9.174  15.366
  1338G11  C0EZ91948   2.778   9.115  15.029
  1338G11  C0GG91949   2.973   9.122  15.355
  1338G11  C0GF91950   2.935   9.116  15.489
  1338G11  H01M91951   3.015   9.129  15.561
  1338G11  C0GE91952   2.811   9.075  15.529
  1338G11  H01K91953   2.799   9.067  15.636
  1338G11  O00J91954   2.563   8.972  15.610
  1338G11  C0GA91955   2.440   8.924  15.657
  1338G11  C0G991956   2.422   8.894  15.792
  1338G11  H01H91957   2.502   8.911  15.862
  1338G11  C0G891958   2.293   8.840  15.828
  1338G11  C0G791959   2.270   8.797  15.968
  1338G11  H01I91960   2.350   8.817  16.038
  1338G11  O00I91961   2.149   8.748  16.013
  1338G11  C0G691962   2.047   8.752  15.921
  1338G11  H01J91963   1.957   8.703  15.954
  1338G11  C02D91964   2.063   8.789  15.779
  1338G11  C02C91965   1.953   8.775  15.688
  1338G11  C01791966   1.815   8.744  15.737
  1338G11  C01691967   1.719   8.714  15.636
  1338G11  O00191968   1.771   8.742  15.871
  1338G11  C01891969   1.646   8.713  15.915
  1338G11  C00991970   1.548   8.687  15.813
  1338G11  C00891971   1.414   8.651  15.842
  1338G11  C00791972   1.332   8.650  15.959
  1338G11  C00691973   1.373   8.663  16.097
  1338G11  C00591974   1.285   8.641  16.206
  1338G11  C00491975   1.141   8.639  16.209
  1338G11  C00391976   1.035   8.625  16.109
  1338G11  C00291977   0.898   8.654  16.143
  1338G11  C00P91978   0.796   8.644  16.043
  1338G11  C00O91979   0.663   8.676  16.072
  1338G11  C00N91980   0.563   8.660  15.977
  1338G11  C01091981   0.431   8.694  16.004
  1338G11  C01191982   0.327   8.677  15.913
  1338G11  C01Q91983   0.192   8.681  15.952
  1338G11  C01U91984   0.156   8.722  16.083
  1338G11  C01291985   0.265   8.753  16.168
  1338G11  H00091986   0.253   8.787  16.269
  1338G11  C01V91987   0.016   8.716  16.117
  1338G11  H00791988  -0.018   8.740  16.217
  1338G11  O00591989  -0.082   8.674  16.029
  1338G11  C01W91990  -0.043   8.644  15.900
  1338G11  C03191991  -0.143   8.615  15.807
  1338G11  C03291992  -0.110   8.581  15.677
  1338G11  H00A91993  -0.184   8.553  15.603
  1338G11  C03391994   0.023   8.573  15.640
  1338G11  H00B91995   0.036   8.534  15.540
  1338G11  C01O91996   0.117   8.622  15.728
  1338G11  C01N91997   0.249   8.617  15.687
  1338G11  C01M91998   0.294   8.602  15.546
  1338G11  C01L91999   0.251   8.627  15.404
  1338G11  C01K92000   0.348   8.561  15.327
  1338G11  C01Y92001   0.365   8.580  15.191
  1338G11  C02I92002   0.264   8.640  15.112
  1338G11  C02N92003   0.282   8.643  14.975
  1338G11  C02M92004   0.179   8.701  14.899
  1338G11  C02L92005   0.069   8.767  14.956
  1338G11  C02K92006   0.060   8.763  15.099
  1338G11  C02U92007  -0.053   8.830  15.162
  1338G11  C02V92008  -0.164   8.875  15.079
  1338G11  C03H92009  -0.288   8.905  15.135
  1338G11  H00C92010  -0.304   8.904  15.242
  1338G11  C02W92011  -0.055   8.847  15.301
  1338G11  C02X92012   0.048   8.792  15.373
  1338G11  C02Y92013   0.028   8.855  15.500
  1338G11  H00892014   0.097   8.846  15.583
  1338G11  C02Z92015  -0.097   8.936  15.501
  1338G11  O00492016  -0.146   9.003  15.594
  1338G11  O00392017  -0.140   8.924  15.376
  1338G11  C02J92018   0.159   8.703  15.182
  1338G11  C01Z92019   0.495   8.550  15.146
  1338G11  C02092020   0.601   8.529  15.233
  1338G11  C01I92021   0.580   8.515  15.368
  1338G11  C01H92022   0.683   8.516  15.467
  1338G11  C00K92023   0.658   8.524  15.600
  1338G11  C01S92024   0.526   8.548  15.640
  1338G11  C01492025   0.490   8.594  15.761
  1338G11  C00J92026   0.754   8.538  15.694
  1338G11  C00I92027   0.882   8.530  15.646
  1338G11  C00H92028   0.918   8.522  15.512
  1338G11  C00G92029   1.046   8.529  15.470
  1338G11  C00S92030   0.983   8.548  15.740
  1338G11  C00T92031   1.112   8.541  15.698
  1338G11  C00U92032   1.210   8.585  15.785
  1338G11  C00R92033   0.957   8.582  15.873
  1338G11  C00L92034   0.725   8.583  15.825
  1338G11  C02892035   0.813   8.518  15.421
  1338G11  C02392036   0.841   8.526  15.284
  1338G11  C02492037   0.972   8.540  15.242
  1338G11  C02192038   0.735   8.535  15.194
  1338G11  C02292039   0.761   8.553  15.058
  1338G11  C02H92040   0.892   8.574  15.017
  1338G11  C03092041   0.912   8.601  14.885
  1338G11  C03492042   0.811   8.599  14.796
  1338G11  C02P92043   0.652   8.563  14.973
  1338G11  C02B92044   0.522   8.570  15.013
  1338G11  C01J92045   0.453   8.520  15.411
  1338G11  C01X92046   0.154   8.708  15.329
  1338G11  C01T92047   0.426   8.545  15.544
  1338G11  H00992048  -0.245   8.607  15.840
  1338G11  C01P92049   0.090   8.649  15.860
  1338G11  C01R92050   0.353   8.629  15.781
  1338G11  C00Z92051   0.402   8.734  16.134
  1338G11  O00092052   0.498   8.740  16.237
  1338G11  C00M92053   0.592   8.609  15.853
  1338G11  C00Y92054   0.628   8.721  16.201
  1338G11  C01392055   0.729   8.723  16.300
  1338G11  H00192056   0.704   8.757  16.399
  1338G11  C00Q92057   0.825   8.606  15.915
  1338G11  C00192058   0.864   8.691  16.276
  1338G11  C00092059   0.964   8.685  16.374
  1338G11  H00692060   0.939   8.710  16.477
  1338G11  C00W92061   1.061   8.607  15.969
  1338G11  C01G92062   1.097   8.667  16.340
  1338G11  H00592063   1.164   8.694  16.420
  1338G11  C01C92064   1.373   8.611  16.320
  1338G11  H00292065   1.340   8.593  16.421
  1338G11  C01B92066   1.504   8.630  16.268
  1338G11  C01D92067   1.629   8.625  16.341
  1338G11  H00392068   1.625   8.601  16.446
  1338G11  C01E92069   1.737   8.659  16.271
  1338G11  H00492070   1.834   8.662  16.318
  1338G11  O00292071   1.745   8.700  16.135
  1338G11  C01A92072   1.506   8.658  16.131
  1338G11  C00V92073   1.198   8.615  15.919
  1338G11  C01992074   1.626   8.686  16.057
  1338G11  C02E92075   1.974   8.802  15.551
  1338G11  C0FX92076   2.106   8.841  15.510
  1338G11  C0FW92077   2.125   8.876  15.376
  1338G11  C0GB92078   2.210   8.854  15.603
  1338G11  C0G392079   1.875   8.780  15.461
  1338G11  C07H92080   1.905   8.796  15.322
  1338G11  C0GC92081   2.191   8.826  15.734
  1338G11  C0G292082   2.334   8.902  15.563
  1338G11  C0G192083   2.350   8.938  15.431
  1338G11  C0FB92084   2.624   9.065  15.212
  1338G11  C0F292085   2.417   9.042  15.023
  1338G11  C0FY92086   2.250   8.919  15.332
  1338G11  C0F592087   2.195   8.968  14.972
  1338G11  C0FV92088   2.029   8.841  15.284
  1338G11  C07992089   1.976   8.889  14.922
  1338G11  C07A92090   1.741   8.835  14.875
  1338G11  C06Y92091   1.491   8.737  14.947
  1338G11  C07D92092   1.806   8.778  15.227
  1338G11  C01F92093   1.749   8.738  15.499
  1338G11  C00A92094   1.590   8.676  15.677
  1338G11  C00X92095   1.330   8.618  15.737
  1338G11  C00F92096   1.145   8.555  15.560
  1338G11  C02992097   1.424   8.651  15.345
  1338G11  C02592098   1.075   8.546  15.332
  1338G11  C06U92099   1.350   8.653  15.112
  1338G11  C02A92100   0.995   8.573  15.110
  1338G11  C05Y92101   1.039   8.629  14.837
  1338G11  C05Z92102   1.057   8.679  14.707
  1338G11  C06092103   0.947   8.694  14.625
  1338G11  C06292104   0.959   8.743  14.494
  1338G11  C06T92105   1.364   8.694  14.981
  1338G11  C06A92106   1.178   8.726  14.668
  1338G11  C06Z92107   1.514   8.779  14.818
  1338G11  C06Q92108   1.549   8.882  14.560
  1338G11  C06892109   1.195   8.774  14.537
  1338G11  C06792110   1.086   8.781  14.447
  1338G11  C06392111   1.145   8.976  14.077
  1338G11  C06C92112   1.167   9.045  13.956
  1338G11  C06D92113   1.072   9.066  13.864
  1338G11  C06E92114   1.089   9.129  13.740
  1338G11  C07Q92115   1.207   9.188  13.712
  1338G11  C07P92116   1.310   9.170  13.800
  1338G11  C07T92117   1.435   9.213  13.769
  1338G11  C07U92118   1.538   9.203  13.860
  1338G11  C07V92119   1.665   9.249  13.822
  1338G11  C08492120   1.686   9.307  13.703
  1338G11  C08C92121   1.580   9.319  13.617
  1338G11  C08B92122   1.598   9.383  13.499
  1338G11  C08A92123   1.490   9.405  13.421
  1338G11  C08992124   1.365   9.364  13.442
  1338G11  C08892125   1.256   9.394  13.358
  1338G11  C08792126   1.128   9.351  13.388
  1338G11  C08692127   1.114   9.272  13.503
  1338G11  C08X92128   1.273   9.476  13.246
  1338G11  C08T92129   1.414   9.510  13.210
  1338G11  C08D92130   1.350   9.293  13.559
  1338G11  C08U92131   1.511   9.473  13.302
  1338G11  C08V92132   1.632   9.531  13.268
  1338G11  C0CY92133   1.738   9.521  13.354
  1338G11  C0CX92134   1.849   9.598  13.325
  1338G11  C0CW92135   1.955   9.588  13.409
  1338G11  C0CV92136   1.938   9.510  13.525
  1338G11  C0D492137   1.821   9.439  13.554
  1338G11  C0CU92138   2.047   9.502  13.611
  1338G11  C0CT92139   2.169   9.570  13.586
  1338G11  C0CS92140   2.181   9.644  13.474
  1338G11  C0D692141   2.025   9.430  13.721
  1338G11  C0EC92142   1.913   9.357  13.760
  1338G11  C07X92143   1.896   9.290  13.878
  1338G11  C0DL92144   2.125   9.437  13.817
  1338G11  C0DK92145   2.108   9.366  13.936
  1338G11  C0DN92146   2.215   9.399  14.011
  1338G11  C0D892147   2.253   9.491  13.804
  1338G11  C08W92148   1.625   9.615  13.158
  1338G11  C0CQ92149   1.745   9.680  13.112
  1338G11  C09392150   1.716   9.445  13.468
  1338G11  C09292151   1.807   9.370  13.671
  1338G11  C08592152   1.454   9.276  13.647
  1338G11  C07S92153   1.223   9.246  13.588
  1338G11  C06F92154   0.984   9.137  13.651
  1338G11  C07O92155   1.290   9.100  13.918
  1338G11  C07N92156   1.398   9.081  14.010
  1338G11  C05D92157   0.963   8.998  13.892
  1338G11  C05C92158   0.864   9.002  13.802
  1338G11  C05N92159   0.769   8.919  13.849
  1338G11  C05M92160   0.740   8.801  14.204
  1338G11  C05I92161   0.850   8.747  14.404
  1338G11  C06192162   0.830   8.638  14.668
  1338G11  C02Q92163   0.684   8.572  14.845
  1338G11  C02O92164   0.410   8.600  14.930
  1338G11  C03Q92165   0.484   8.622  14.572
  1338G11  C03O92166   0.332   8.726  14.415
  1338G11  C03L92167   0.004   8.852  14.448
  1338G11  C02S92168   0.181   8.714  14.756
  1338G11  C02T92169  -0.033   8.833  14.882
  1338G11  C03K92170  -0.115   8.910  14.512
  1338G11  C03I92171  -0.155   8.871  14.941
  1338G11  C03G92172  -0.399   8.937  15.058
  1338G11  H00D92173  -0.492   8.955  15.109
  1338G11  C03J92174  -0.353   8.982  14.649
  1338G11  C03W92175  -0.575   9.105  14.515
  1338G11  C04I92176  -0.452   9.119  14.319
  1338G11  C04K92177  -0.400   9.186  14.062
  1338G11  C04N92178  -0.358   9.230  13.934
  1338G11  C04X92179  -0.196   9.245  13.753
  1338G11  C05092180  -0.013   9.263  13.582
  1338G11  C05W92181   0.122   9.069  13.723
  1338G11  C05S92182   0.411   9.233  13.375
  1338G11  C05R92183   0.408   8.997  13.644
  1338G11  C05O92184   0.646   8.929  13.783
  1338G11  C05B92185   0.868   9.073  13.679
  1338G11  C05A92186   0.635   9.155  13.427
  1338G11  C07R92187   0.992   9.211  13.529
  1338G11  C08N92188   1.018   9.367  13.301
  1338G11  C08M92189   1.035   9.459  13.194
  1338G11  C08L92190   0.924   9.489  13.115
  1338G11  C09192191   0.561   9.245  13.346
  1338G11  C09K92192   0.587   9.260  13.000
  1338G11  H00M92193   0.567   9.154  13.011
  1338G11  C08K92194   0.798   9.434  13.149
  1338G11  C09J92195   0.621   9.343  12.880
  1338G11  C09I92196   0.668   9.325  12.746
  1338G11  C09L92197   0.637   9.226  12.652
  1338G11  H00N92198   0.581   9.136  12.674
  1338G11  C09Q92199   0.706   9.239  12.535
  1338G11  H00O92200   0.694   9.163  12.458
  1338G11  O00B92201   0.800   9.338  12.504
  1338G11  C09G92202   0.833   9.435  12.598
  1338G11  C09F92203   0.945   9.523  12.554
  1338G11  O00A92204   0.981   9.509  12.424
  1338G11  C09P92205   1.081   9.595  12.375
  1338G11  H00P92206   1.038   9.671  12.312
  1338G11  C09O92207   1.187   9.647  12.461
  1338G11  C09D92208   1.144   9.670  12.597
  1338G11  C09C92209   1.223   9.737  12.706
  1338G11  C09N92210   1.359   9.791  12.715
  1338G11  C09T92211   1.463   9.742  12.626
  1338G11  C09S92212   1.438   9.699  12.490
  1338G11  C0CP92213   1.564   9.719  12.432
  1338G11  C0CN92214   1.664   9.773  12.511
  1338G11  C0CO92215   1.795   9.779  12.462
  1338G11  H01492216   1.874   9.800  12.533
  1338G11  C0CZ92217   1.812   9.761  12.323
  1338G11  H01592218   1.905   9.764  12.268
  1338G11  C0D092219   1.705   9.711  12.237
  1338G11  C0G592220   1.717   9.681  12.094
  1338G11  H01F92221   1.813   9.683  12.044
  1338G11  C0G492222   1.615   9.626  12.032
  1338G11  H01G92223   1.641   9.599  11.931
  1338G11  O00H92224   1.492   9.599  12.079
  1338G11  C0D292225   1.478   9.633  12.212
  1338G11  C09V92226   1.352   9.622  12.278
  1338G11  H00Q92227   1.269   9.591  12.217
  1338G11  C0D192228   1.580   9.686  12.290
  1338G11  C09R92229   1.322   9.661  12.411
  1338G11  C09H92230   0.758   9.430  12.718
  1338G11  C09E92231   1.019   9.612  12.642
  1338G11  C09B92232   1.175   9.763  12.832
  1338G11  C08Z92233   0.946   9.572  13.002
  1338G11  C08O92234   1.164   9.528  13.169
  1338G11  C09A92235   1.275   9.806  12.925
  1338G11  C08S92236   1.486   9.597  13.116
  1338G11  C09992237   1.392   9.823  12.853
  1338G11  C09U92238   1.604   9.784  12.647
  1338G11  C0BO92239   1.998   9.986  12.840
  1338G11  C0CL92240   1.750   9.752  12.993
  1338G11  C0D392241   1.853   9.675  13.204
  1338G11  C0D592242   2.074   9.651  13.381
  1338G11  C0BR92243   2.103   9.883  13.040
  1338G11  C0BQ92244   2.104   9.973  12.931
  1338G11  C0BL92245   2.124  10.154  12.716
  1338G11  C0AF92246   2.355  10.286  12.667
  1338G11  C0BH92247   2.461  10.062  12.939
  1338G11  C0BG92248   2.575  10.041  13.019
  1338G11  C0BD92249   2.706  10.173  12.866
  1338G11  C0AG92250   2.478  10.322  12.629
  1338G11  C0AI92251   2.591  10.510  12.527
  1338G11  C0AV92252   2.795  10.686  12.524
  1338G11  C0BB92253   2.945  10.389  12.677
  1338G11  O00C92254   3.013  10.736  12.628
  1338G11  C0BC92255   3.058  10.381  12.747
  1338G11  C0B992256   2.828  10.233  12.828
  1338G11  O00E92257   3.036  10.130  13.121
  1338G11  C0CA92258   3.029  10.075  13.243
  1338G11  O00F92259   3.127  10.083  13.314
  1338G11  C0BF92260   2.696  10.098  12.982
  1338G11  C0C592261   2.908  10.002  13.269
  1338G11  C0C492262   2.899   9.942  13.392
  1338G11  H01192263   2.990   9.923  13.448
  1338G11  C0C892264   2.568   9.963  13.133
  1338G11  C0C292265   2.776   9.873  13.419
  1338G11  C0C392266   2.754   9.797  13.541
  1338G11  C0DY92267   2.853   9.758  13.634
  1338G11  H01692268   2.960   9.773  13.636
  1338G11  C0DX92269   2.780   9.666  13.715
  1338G11  C0DW92270   2.850   9.568  13.784
  1338G11  C0BY92271   2.432   9.837  13.290
  1338G11  C0DB92272   2.631   9.739  13.568
  1338G11  C0CC92273   2.300   9.705  13.446
  1338G11  C0D792274   2.280   9.558  13.678
  1338G11  C0DZ92275   2.638   9.658  13.685
  1338G11  C0DM92276   2.315   9.467  13.930
  1338G11  C0DQ92277   2.669   9.495  13.946
  1338G11  C0DV92278   2.803   9.517  13.908
  1338G11  C0E092279   2.993   9.543  13.778
  1338G11  C0FO92280   3.153   9.287  13.963
  1338G11  C0E392281   3.060   9.462  13.680
  1338G11  H01792282   3.013   9.451  13.583
  1338G11  C0GV92283   3.212   9.198  13.874
  1338G11  C0ES92284   3.084   9.228  14.071
  1338G11  C0GQ92285   3.238   8.889  14.057
  1338G11  C0FJ92286   3.041   8.833  14.369
  1338G11  C0ED92287   2.942   9.091  14.285
  1338G11  C0ER92288   2.845   9.123  14.619
  1338G11  C0EP92289   2.621   9.157  14.581
  1338G11  C0E692290   2.758   9.259  14.243
  1338G11  C0DE92291   2.456   9.347  14.210
  1338G11  C0EA92292   2.374   9.154  14.530
  1338G11  C0DF92293   2.316   9.357  14.232
  1338G11  C08092294   2.093   9.101  14.355
  1338G11  C0DO92295   2.215   9.341  14.132
  1338G11  C0DJ92296   1.993   9.292  13.966
  1338G11  C07K92297   1.845   9.088  14.240
  1338G11  C07W92298   1.773   9.233  13.905
  1338G11  C08392299   1.522   9.134  13.980
  1338G11  C07J92300   1.717   9.045  14.278
  1338G11  C06O92301   1.461   8.943  14.343
  1338G11  C06M92302   1.377   9.019  14.131
  1348G11  C07192303   5.921   5.926  15.292
  1348G11  C07L92304   5.927   5.786  15.314
  1348G11  C07M92305   5.855   5.725  15.411
  1348G11  C07Y92306   5.872   5.586  15.444
  1348G11  C08192307   5.965   5.505  15.369
  1348G11  C08292308   5.975   5.369  15.403
  1348G11  C0DI92309   6.059   5.265  15.343
  1348G11  C0DH92310   6.132   5.257  15.219
  1348G11  C0DG92311   6.199   5.126  15.203
  1348G11  C0E992312   6.214   5.047  15.083
  1348G11  C0E892313   6.192   4.909  15.136
  1348G11  C0E792314   6.244   4.781  15.081
  1348G11  C0EB92315   6.305   4.779  14.952
  1348G11  C0EF92316   6.383   4.669  14.901
  1348G11  C0EE92317   6.478   4.591  14.970
  1348G11  C0FD92318   6.616   4.582  14.940
  1348G11  C0FE92319   6.679   4.669  14.849
  1348G11  H01B92320   6.610   4.744  14.813
  1348G11  C0FF92321   6.814   4.677  14.818
  1348G11  H01A92322   6.854   4.748  14.747
  1348G11  C0FG92323   6.891   4.582  14.889
  1348G11  H01892324   6.995   4.579  14.863
  1348G11  C0FH92325   6.836   4.489  14.982
  1348G11  C0FI92326   6.909   4.391  15.058
  1348G11  H01992327   7.017   4.381  15.061
  1348G11  O00K92328   6.851   4.301  15.143
  1348G11  C0FL92329   6.719   4.313  15.161
  1348G11  C0FK92330   6.638   4.406  15.096
  1348G11  C0FM92331   6.499   4.411  15.124
  1348G11  C0FN92332   6.436   4.301  15.190
  1348G11  C0FP92333   6.515   4.206  15.246
  1348G11  C0GO92334   6.465   4.111  15.333
  1348G11  C0GN92335   6.536   4.034  15.419
  1348G11  C0GR92336   6.680   4.041  15.403
  1348G11  C0GS92337   6.760   3.968  15.491
  1348G11  H01Q92338   6.868   3.976  15.493
  1348G11  C0GT92339   6.702   3.888  15.585
  1348G11  H01O92340   6.764   3.831  15.652
  1348G11  C0GU92341   6.560   3.881  15.603
  1348G11  H01P92342   6.509   3.832  15.684
  1348G11  O00L92343   6.738   4.114  15.299
  1348G11  C0GM92344   6.472   3.958  15.525
  1348G11  C0GL92345   6.332   3.967  15.536
  1348G11  H01R92346   6.301   3.929  15.632
  1348G11  C0GK92347   6.256   4.032  15.439
  1348G11  C0GP92348   6.117   4.081  15.434
  1348G11  C0E292349   6.104   4.157  15.312
  1348G11  C0E192350   6.001   4.257  15.339
  1348G11  C0DU92351   6.018   4.395  15.313
  1348G11  C0DT92352   6.107   4.462  15.231
  1348G11  C0E492353   6.226   4.417  15.184
  1348G11  C0E592354   6.292   4.527  15.133
  1348G11  C0DS92355   6.108   4.602  15.224
  1348G11  C0DR92356   6.030   4.680  15.312
  1348G11  C0DD92357   6.035   4.817  15.333
  1348G11  C0DC92358   5.936   4.831  15.452
  1348G11  C0DP92359   5.880   4.709  15.499
  1348G11  C0DA92360   5.788   4.675  15.604
  1348G11  C0D992361   5.692   4.763  15.674
  1348G11  C0CR92362   5.585   4.709  15.753
  1348G11  C0C092363   5.578   4.574  15.786
  1348G11  C0BZ92364   5.481   4.512  15.863
  1348G11  C0C192365   5.485   4.377  15.886
  1348G11  C0C792366   5.377   4.313  15.945
  1348G11  C0C692367   5.372   4.177  15.964
  1348G11  C0C992368   5.257   4.118  16.014
  1348G11  C0B892369   5.257   3.978  16.031
  1348G11  C0B792370   5.135   3.909  16.065
  1348G11  C0B692371   5.118   3.771  16.100
  1348G11  C0B592372   5.222   3.706  16.183
  1348G11  H00Z92373   5.326   3.730  16.198
  1348G11  C0B492374   5.140   3.621  16.277
  1348G11  H01092375   5.161   3.572  16.371
  1348G11  C0B392376   5.002   3.612  16.238
  1348G11  C0AP92377   4.879   3.637  16.310
  1348G11  C0AQ92378   4.811   3.742  16.242
  1348G11  C0AR92379   4.717   3.824  16.313
  1348G11  C0AS92380   4.698   3.947  16.257
  1348G11  C0AT92381   4.794   4.006  16.179
  1348G11  C0BA92382   4.894   3.928  16.127
  1348G11  C0AU92383   4.801   4.143  16.168
  1348G11  C0BE92384   4.912   4.203  16.115
  1348G11  C0BI92385   4.924   4.341  16.125
  1348G11  C0BJ92386   4.827   4.419  16.183
  1348G11  C0BK92387   4.832   4.556  16.178
  1348G11  C0BW92388   4.946   4.617  16.122
  1348G11  C0BV92389   5.051   4.539  16.073
  1348G11  C0BU92390   5.164   4.604  16.018
  1348G11  C0BX92391   5.266   4.528  15.962
  1348G11  C0BT92392   5.164   4.739  16.000
  1348G11  C0CD92393   5.270   4.800  15.937
  1348G11  C0CB92394   5.379   4.724  15.888
  1348G11  C0CE92395   5.273   4.942  15.928
  1348G11  C0CK92396   5.168   5.020  15.981
  1348G11  C0BS92397   5.058   4.957  16.039
  1348G11  C0CJ92398   4.950   5.038  16.082
  1348G11  C0BP92399   4.844   4.968  16.148
  1348G11  C0CI92400   4.727   5.043  16.177
  1348G11  C0CH92401   4.630   4.974  16.256
  1348G11  H01292402   4.551   5.045  16.280
  1348G11  C0BN92403   4.641   4.839  16.296
  1348G11  C0CG92404   4.532   4.780  16.364
  1348G11  C0CF92405   4.422   4.857  16.416
  1348G11  H01392406   4.427   4.965  16.418
  1348G11  O00G92407   4.314   4.790  16.468
  1348G11  C0AA92408   4.329   4.655  16.500
  1348G11  C0A992409   4.233   4.602  16.585
  1348G11  H00U92410   4.155   4.663  16.626
  1348G11  C0A892411   4.226   4.465  16.616
  1348G11  H00V92412   4.149   4.437  16.686
  1348G11  C0A792413   4.327   4.380  16.562
  1348G11  C0A692414   4.429   4.433  16.469
  1348G11  C0A592415   4.523   4.364  16.397
  1348G11  C0A492416   4.529   4.219  16.402
  1348G11  C0A392417   4.471   4.113  16.481
  1348G11  C0A292418   4.401   4.133  16.598
  1348G11  C0A192419   4.357   4.022  16.671
  1348G11  C0A092420   4.403   3.880  16.690
  1348G11  C09Z92421   4.345   3.818  16.801
  1348G11  C09Y92422   4.396   3.692  16.843
  1348G11  H00Y92423   4.353   3.645  16.930
  1348G11  C09X92424   4.499   3.628  16.775
  1348G11  C09W92425   4.538   3.497  16.825
  1348G11  H00R92426   4.485   3.447  16.904
  1348G11  C0AX92427   4.641   3.429  16.761
  1348G11  H00S92428   4.662   3.333  16.806
  1348G11  C0AW92429   4.705   3.484  16.651
  1348G11  H00T92430   4.776   3.416  16.607
  1348G11  C0AN92431   4.667   3.610  16.602
  1348G11  C0AO92432   4.715   3.660  16.481
  1348G11  C0AM92433   4.559   3.688  16.661
  1348G11  C0B292434   4.233   3.860  16.875
  1348G11  O00D92435   4.183   3.808  16.974
  1348G11  C0B192436   4.172   3.986  16.835
  1348G11  H00W92437   4.092   4.026  16.896
  1348G11  C0AL92438   4.513   3.818  16.623
  1348G11  C0AK92439   4.563   3.858  16.499
  1348G11  C0B092440   4.247   4.069  16.747
  1348G11  C0AZ92441   4.226   4.206  16.720
  1348G11  H00X92442   4.146   4.259  16.769
  1348G11  C0AJ92443   4.532   3.988  16.444
  1348G11  C0AH92444   4.613   4.163  16.307
  1348G11  C0AE92445   4.625   4.429  16.330
  1348G11  C0AD92446   4.631   4.566  16.317
  1348G11  C0AY92447   4.323   4.249  16.624
  1348G11  C0AB92448   4.432   4.573  16.447
  1348G11  C0AC92449   4.529   4.641  16.377
  1348G11  C0BM92450   4.742   4.766  16.246
  1348G11  C0CM92451   4.701   5.170  16.125
  1348G11  C09M92452   4.825   5.249  16.095
  1348G11  C09892453   4.816   5.389  16.124
  1348G11  C08R92454   4.897   5.503  16.096
  1348G11  C08Q92455   4.855   5.626  16.149
  1348G11  C08P92456   4.869   5.771  16.110
  1348G11  C08Y92457   4.758   5.849  16.157
  1348G11  C09792458   4.642   5.783  16.193
  1348G11  C09692459   4.537   5.852  16.139
  1348G11  C09092460   4.590   5.983  16.113
  1348G11  C09592461   4.517   6.097  16.056
  1348G11  C09492462   4.570   6.229  16.033
  1348G11  C08J92463   4.712   6.271  16.026
  1348G11  C08I92464   4.712   6.374  15.928
  1348G11  C08H92465   4.845   6.375  15.867
  1348G11  C08G92466   4.905   6.245  15.904
  1348G11  C08F92467   5.035   6.179  15.885
  1348G11  C08E92468   5.144   6.251  15.832
  1348G11  C05992469   5.163   6.388  15.841
  1348G11  C05892470   5.274   6.452  15.781
  1348G11  C05792471   5.301   6.586  15.767
  1348G11  C05692472   5.204   6.678  15.819
  1348G11  C05592473   5.101   6.633  15.897
  1348G11  C05492474   4.988   6.720  15.877
  1348G11  C05392475   5.028   6.826  15.784
  1348G11  C05292476   4.944   6.924  15.721
  1348G11  C05192477   4.805   6.938  15.753
  1348G11  C05U92478   4.725   6.842  15.831
  1348G11  C05T92479   4.742   6.707  15.869
  1348G11  C06K92480   4.633   6.673  15.954
  1348G11  H00J92481   4.639   6.585  16.015
  1348G11  C06L92482   4.542   6.785  15.967
  1348G11  H00I92483   4.455   6.796  16.030
  1348G11  C05V92484   4.597   6.884  15.880
  1348G11  C06J92485   4.535   7.002  15.838
  1348G11  H00K92486   4.434   7.022  15.871
  1348G11  C05X92487   4.599   7.087  15.745
  1348G11  C06I92488   4.538   7.202  15.684
  1348G11  H00L92489   4.434   7.220  15.707
  1348G11  C04Z92490   4.597   7.277  15.578
  1348G11  C06H92491   4.517   7.379  15.512
  1348G11  H00H92492   4.417   7.408  15.543
  1348G11  C04Y92493   4.581   7.455  15.409
  1348G11  C06G92494   4.512   7.565  15.347
  1348G11  O00992495   4.408   7.608  15.381
  1348G11  O00892496   4.578   7.629  15.239
  1348G11  C04P92497   4.701   7.594  15.198
  1348G11  C04J92498   4.781   7.672  15.099
  1348G11  C04Q92499   4.750   7.792  15.033
  1348G11  H00E92500   4.653   7.828  15.066
  1348G11  C04M92501   4.827   7.859  14.936
  1348G11  C04R92502   4.791   7.976  14.862
  1348G11  H00F92503   4.702   8.026  14.895
  1348G11  C04S92504   4.880   8.034  14.779
  1348G11  H00G92505   4.849   8.129  14.737
  1348G11  O00792506   4.998   7.976  14.746
  1348G11  C03V92507   5.028   7.860  14.813
  1348G11  C03U92508   5.149   7.795  14.778
  1348G11  O00692509   5.228   7.860  14.679
  1348G11  C03F92510   5.321   7.777  14.613
  1348G11  C03E92511   5.364   7.653  14.665
  1348G11  C03D92512   5.304   7.607  14.787
  1348G11  C03C92513   5.359   7.496  14.848
  1348G11  C03B92514   5.469   7.438  14.781
  1348G11  C03A92515   5.535   7.337  14.853
  1348G11  C03992516   5.485   7.284  14.971
  1348G11  C03892517   5.583   7.178  15.005
  1348G11  C03792518   5.675   7.185  14.901
  1348G11  C03692519   5.779   7.107  14.901
  1348G11  C02R92520   5.877   7.089  14.809
  1348G11  C03592521   5.963   6.985  14.856
  1348G11  C03R92522   5.915   6.939  14.975
  1348G11  C03S92523   5.918   6.804  15.017
  1348G11  C04992524   5.826   6.760  15.110
  1348G11  C04892525   5.737   6.853  15.160
  1348G11  C03P92526   5.705   6.977  15.093
  1348G11  C04792527   5.673   6.809  15.272
  1348G11  C04692528   5.572   6.875  15.345
  1348G11  C04592529   5.512   6.998  15.324
  1348G11  C03T92530   5.519   7.092  15.219
  1348G11  C04492531   5.409   7.180  15.241
  1348G11  C04392532   5.362   7.162  15.371
  1348G11  C04292533   5.220   7.206  15.377
  1348G11  C04192534   5.214   7.279  15.247
  1348G11  C04092535   5.094   7.342  15.202
  1348G11  C03Z92536   5.091   7.452  15.106
  1348G11  C04H92537   4.962   7.509  15.123
  1348G11  C04G92538   4.892   7.447  15.225
  1348G11  C03N92539   5.178   7.509  15.005
  1348G11  C03Y92540   5.122   7.625  14.944
  1348G11  C03X92541   4.997   7.684  14.977
  1348G11  C04F92542   4.971   7.350  15.277
  1348G11  C04E92543   4.920   7.290  15.396
  1348G11  C04O92544   4.788   7.319  15.435
  1348G11  C04D92545   4.985   7.192  15.473
  1348G11  C04V92546   4.921   7.114  15.570
  1348G11  C04W92547   4.788   7.140  15.608
  1348G11  C04C92548   5.123   7.151  15.474
  1348G11  C04L92549   5.134   7.045  15.570
  1348G11  C04U92550   5.249   6.967  15.597
  1348G11  C05Q92551   5.258   6.848  15.677
  1348G11  C05P92552   5.373   6.779  15.647
  1348G11  C04T92553   5.434   6.842  15.540
  1348G11  C04B92554   5.367   6.956  15.514
  1348G11  C03M92555   5.332   7.268  15.164
  1348G11  C04A92556   5.409   7.039  15.414
  1348G11  C05H92557   5.536   6.796  15.452
  1348G11  C05G92558   5.606   6.671  15.440
  1348G11  C05F92559   5.600   6.561  15.529
  1348G11  C05E92560   5.650   6.428  15.508
  1348G11  C05L92561   5.734   6.363  15.407
  1348G11  C05K92562   5.797   6.430  15.300
  1348G11  C05J92563   5.779   6.573  15.264
  1348G11  C06692564   5.877   6.345  15.212
  1348G11  C06592565   5.893   6.206  15.242
  1348G11  C06492566   5.829   6.143  15.350
  1348G11  C06N92567   5.974   6.122  15.162
  1348G11  C06992568   6.033   6.180  15.051
  1348G11  C06P92569   6.110   6.099  14.970
  1348G11  C06R92570   6.168   6.153  14.853
  1348G11  C06B92571   6.165   6.288  14.828
  1348G11  C06S92572   6.223   6.339  14.712
  1348G11  C02G92573   6.206   6.474  14.681
  1348G11  C02F92574   6.251   6.520  14.561
  1348G11  C02792575   6.322   6.440  14.473
  1348G11  C02692576   6.372   6.490  14.358
  1348G11  C00E92577   6.441   6.410  14.270
  1348G11  C00D92578   6.488   6.465  14.148
  1348G11  C00C92579   6.534   6.374  14.054
  1348G11  C00B92580   6.546   6.242  14.076
  1348G11  C01592581   6.496   6.193  14.198
  1348G11  C07F92582   6.490   6.057  14.211
  1348G11  C07E92583   6.450   6.002  14.333
  1348G11  C06W92584   6.404   6.087  14.437
  1348G11  C06V92585   6.397   6.219  14.412
  1348G11  C06X92586   6.359   6.035  14.557
  1348G11  C07B92587   6.363   5.904  14.579
  1348G11  C07C92588   6.406   5.815  14.480
  1348G11  C0FU92589   6.406   5.676  14.501
  1348G11  C0F792590   6.440   5.593  14.396
  1348G11  C0F692591   6.426   5.454  14.414
  1348G11  C0F892592   6.449   5.368  14.307
  1348G11  C0F992593   6.435   5.231  14.329
  1348G11  C0FA92594   6.464   5.149  14.222
  1348G11  C0FZ92595   6.498   5.202  14.097
  1348G11  C0G092596   6.522   5.115  13.989
  1348G11  C0GD92597   6.519   4.977  14.005
  1348G11  C0FC92598   6.493   4.922  14.132
  1348G11  C0GH92599   6.499   4.780  14.149
  1348G11  C0EY92600   6.468   4.729  14.279
  1348G11  C0EX92601   6.482   4.592  14.302
  1348G11  C0EW92602   6.464   4.542  14.431
  1348G11  C0FR92603   6.475   4.406  14.453
  1348G11  H01D92604   6.457   4.357  14.547
  1348G11  C0FS92605   6.506   4.319  14.345
  1348G11  H01C92606   6.520   4.218  14.380
  1348G11  C0GJ92607   6.525   4.372  14.218
  1348G11  H01N92608   6.547   4.301  14.140
  1348G11  C0EV92609   6.425   4.632  14.528
  1348G11  C0FT92610   6.418   4.576  14.658
  1348G11  H01E92611   6.436   4.472  14.682
  1348G11  C0EU92612   6.415   4.767  14.505
  1348G11  C0ET92613   6.365   4.854  14.603
  1348G11  C0EI92614   6.352   4.991  14.591
  1348G11  C0F192615   6.391   5.041  14.468
  1348G11  C0F092616   6.431   4.955  14.361
  1348G11  C0EH92617   6.315   5.073  14.705
  1348G11  C0EG92618   6.276   5.017  14.834
  1348G11  C0EJ92619   6.325   5.213  14.686
  1348G11  C0F392620   6.366   5.267  14.560
  1348G11  C0EK92621   6.299   5.292  14.793
  1348G11  C0EL92622   6.252   5.242  14.922
  1348G11  C0EM92623   6.209   5.349  15.011
  1348G11  C0EN92624   6.248   5.479  14.986
  1348G11  C07I92625   6.187   5.562  15.081
  1348G11  C07492626   6.168   5.702  15.054
  1348G11  C07392627   6.084   5.773  15.136
  1348G11  C07292628   6.067   5.908  15.106
  1348G11  C07592629   6.218   5.748  14.936
  1348G11  C07692630   6.285   5.663  14.843
  1348G11  C07892631   6.328   5.712  14.724
  1348G11  C07G92632   6.201   5.884  14.908
  1348G11  C07092633   6.258   5.937  14.794
  1348G11  C07Z92634   6.112   5.495  15.174
  1348G11  C07792635   6.284   5.528  14.861
  1348G11  C0EO92636   6.319   5.433  14.767
  1348G11  C0F492637   6.362   5.487  14.647
  1348G11  C0EQ92638   6.342   4.796  14.726
  1348G11  C0FQ92639   6.514   4.510  14.193
  1348G11  C0GI92640   6.539   4.565  14.072
  1348G11  H01L92641   6.548   4.494  13.991
  1348G11  C0EZ92642   6.433   4.816  14.379
  1348G11  C0GG92643   6.541   4.695  14.046
  1348G11  C0GF92644   6.554   4.755  13.914
  1348G11  H01M92645   6.560   4.704  13.819
  1348G11  C0GE92646   6.548   4.891  13.901
  1348G11  H01K92647   6.576   4.926  13.803
  1348G11  O00J92648   6.565   5.161  13.870
  1348G11  C0GA92649   6.572   5.293  13.856
  1348G11  C0G992650   6.608   5.342  13.733
  1348G11  H01H92651   6.621   5.272  13.652
  1348G11  C0G892652   6.619   5.478  13.705
  1348G11  C0G792653   6.642   5.539  13.577
  1348G11  H01I92654   6.617   5.473  13.495
  1348G11  O00I92655   6.671   5.670  13.558
  1348G11  C0G692656   6.632   5.751  13.659
  1348G11  H01J92657   6.608   5.847  13.618
  1348G11  C02D92658   6.618   5.706  13.796
  1348G11  C02C92659   6.593   5.799  13.903
  1348G11  C01792660   6.617   5.936  13.887
  1348G11  C01692661   6.584   6.026  13.990
  1348G11  O00192662   6.668   5.987  13.768
  1348G11  C01892663   6.655   6.117  13.734
  1348G11  C00992664   6.617   6.209  13.837
  1348G11  C00892665   6.600   6.350  13.821
  1348G11  C00792666   6.600   6.448  13.708
  1348G11  C00692667   6.628   6.413  13.578
  1348G11  C00592668   6.623   6.510  13.471
  1348G11  C00492669   6.584   6.650  13.466
  1348G11  C00392670   6.526   6.739  13.570
  1348G11  C00292671   6.489   6.874  13.537
  1348G11  C00P92672   6.419   6.956  13.632
  1348G11  C00O92673   6.362   7.080  13.592
  1348G11  C00N92674   6.274   7.150  13.672
  1348G11  C01092675   6.208   7.269  13.630
  1348G11  C01192676   6.120   7.337  13.715
  1348G11  C01Q92677   6.047   7.445  13.661
  1348G11  C01U92678   6.071   7.488  13.528
  1348G11  C01292679   6.174   7.429  13.457
  1348G11  H00092680   6.194   7.465  13.358
  1348G11  C01V92681   5.984   7.591  13.487
  1348G11  H00792682   5.995   7.640  13.392
  1348G11  O00592683   5.874   7.641  13.561
  1348G11  C01W92684   5.858   7.592  13.684
  1348G11  C03192685   5.749   7.639  13.763
  1348G11  C03292686   5.717   7.586  13.891
  1348G11  H00A92687   5.639   7.627  13.952
  1348G11  C03392688   5.807   7.496  13.949
  1348G11  H00B92689   5.781   7.469  14.051
  1348G11  C01O92690   5.923   7.455  13.877
  1348G11  C01N92691   6.014   7.370  13.937
  1348G11  C01M92692   6.019   7.340  14.085
  1348G11  C01L92693   5.941   7.353  14.215
  1348G11  C01K92694   5.999   7.255  14.297
  1348G11  C01Y92695   5.962   7.220  14.431
  1348G11  C02I92696   5.857   7.289  14.488
  1348G11  C02N92697   5.817   7.248  14.616
  1348G11  C02M92698   5.706   7.314  14.671
  1348G11  C02L92699   5.638   7.415  14.601
  1348G11  C02K92700   5.687   7.461  14.479
  1348G11  C02U92701   5.643   7.587  14.434
  1348G11  C02V92702   5.536   7.647  14.490
  1348G11  C03H92703   5.483   7.768  14.438
  1348G11  H00C92704   5.516   7.830  14.356
  1348G11  C02W92705   5.718   7.656  14.336
  1348G11  C02X92706   5.818   7.582  14.272
  1348G11  C02Y92707   5.874   7.675  14.179
  1348G11  H00892708   5.951   7.658  14.105
  1348G11  C02Z92709   5.803   7.801  14.186
  1348G11  O00492710   5.812   7.908  14.126
  1348G11  O00392711   5.707   7.779  14.282
  1348G11  C02J92712   5.794   7.395  14.413
  1348G11  C01Z92713   6.018   7.108  14.475
  1348G11  C02092714   6.103   7.027  14.397
  1348G11  C01I92715   6.160   7.076  14.282
  1348G11  C01H92716   6.229   7.000  14.196
  1348G11  C00K92717   6.248   7.040  14.063
  1348G11  C01S92718   6.193   7.157  14.020
  1348G11  C01492719   6.189   7.193  13.892
  1348G11  C00J92720   6.321   6.961  13.979
  1348G11  C00I92721   6.375   6.843  14.024
  1348G11  C00H92722   6.345   6.799  14.151
  1348G11  C00G92723   6.389   6.674  14.197
  1348G11  C00S92724   6.452   6.764  13.939
  1348G11  C00T92725   6.499   6.645  13.990
  1348G11  C00U92726   6.565   6.562  13.897
  1348G11  C00R92727   6.461   6.794  13.803
  1348G11  C00L92728   6.329   6.995  13.847
  1348G11  C02892729   6.273   6.877  14.239
  1348G11  C02392730   6.226   6.822  14.358
  1348G11  C02492731   6.259   6.698  14.400
  1348G11  C02192732   6.144   6.899  14.438
  1348G11  C02292733   6.112   6.859  14.563
  1348G11  C02H92734   6.150   6.734  14.607
  1348G11  C03092735   6.115   6.689  14.730
  1348G11  C03492736   6.052   6.772  14.817
  1348G11  C02P92737   6.042   6.943  14.645
  1348G11  C02B92738   5.981   7.062  14.599
  1348G11  C01J92739   6.097   7.188  14.236
  1348G11  C01X92740   5.855   7.444  14.290
  1348G11  C01T92741   6.108   7.230  14.108
  1348G11  H00992742   5.670   7.705  13.730
  1348G11  C01P92743   5.946   7.502  13.744
  1348G11  C01R92744   6.107   7.300  13.850
  1348G11  C00Z92745   6.247   7.318  13.505
  1348G11  O00092746   6.335   7.250  13.419
  1348G11  C00M92747   6.261   7.110  13.803
  1348G11  C00Y92748   6.386   7.132  13.463
  1348G11  C01392749   6.469   7.055  13.378
  1348G11  H00192750   6.504   7.092  13.283
  1348G11  C00Q92751   6.402   6.914  13.760
  1348G11  C00192752   6.513   6.925  13.407
  1348G11  C00092753   6.584   6.846  13.315
  1348G11  H00692754   6.601   6.886  13.216
  1348G11  C00W92755   6.519   6.709  13.708
  1348G11  C01G92756   6.612   6.716  13.342
  1348G11  H00592757   6.660   6.662  13.261
  1348G11  C01C92758   6.671   6.431  13.358
  1348G11  H00292759   6.676   6.464  13.255
  1348G11  C01B92760   6.679   6.296  13.401
  1348G11  C01D92761   6.705   6.182  13.320
  1348G11  H00392762   6.713   6.200  13.214
  1348G11  C01E92763   6.709   6.061  13.379
  1348G11  H00492764   6.720   5.971  13.320
  1348G11  O00292765   6.703   6.049  13.515
  1348G11  C01A92766   6.664   6.285  13.537
  1348G11  C00V92767   6.559   6.576  13.755
  1348G11  C01992768   6.680   6.158  13.600
  1348G11  C02E92769   6.551   5.751  14.026
  1348G11  C0FX92770   6.548   5.610  14.043
  1348G11  C0FW92771   6.512   5.557  14.168
  1348G11  C0GB92772   6.573   5.521  13.938
  1348G11  C0G392773   6.539   5.836  14.131
  1348G11  C07H92774   6.493   5.782  14.251
  1348G11  C0GC92775   6.602   5.566  13.810
  1348G11  C0G292776   6.552   5.386  13.958
  1348G11  C0G192777   6.516   5.333  14.082
  1348G11  C0FB92778   6.467   5.010  14.236
  1348G11  C0F292779   6.391   5.178  14.453
  1348G11  C0FY92780   6.497   5.419  14.187
  1348G11  C0F592781   6.387   5.401  14.540
  1348G11  C0FV92782   6.486   5.640  14.276
  1348G11  C07992783   6.370   5.625  14.623
  1348G11  C07A92784   6.322   5.849  14.702
  1348G11  C06Y92785   6.299   6.120  14.651
  1348G11  C07D92786   6.449   5.867  14.352
  1348G11  C01F92787   6.537   5.971  14.111
  1348G11  C00A92788   6.587   6.159  13.967
  1348G11  C00X92789   6.579   6.426  13.933
  1348G11  C00F92790   6.466   6.597  14.113
  1348G11  C02992791   6.451   6.272  14.294
  1348G11  C02592792   6.343   6.621  14.318
  1348G11  C06U92793   6.342   6.307  14.505
  1348G11  C02A92794   6.225   6.651  14.529
  1348G11  C05Y92795   6.136   6.557  14.764
  1348G11  C05Z92796   6.079   6.507  14.884
  1348G11  C06092797   6.005   6.590  14.967
  1348G11  C06292798   5.933   6.537  15.079
  1348G11  C06T92799   6.286   6.258  14.623
  1348G11  C06A92800   6.088   6.372  14.910
  1348G11  C06Z92801   6.241   6.071  14.765
  1348G11  C06Q92802   6.127   5.962  14.996
  1348G11  C06892803   6.028   6.319  15.023
  1348G11  C06792804   5.949   6.399  15.104
  1348G11  C06392805   5.747   6.223  15.428
  1348G11  C06C92806   5.659   6.151  15.515
  1348G11  C06D92807   5.567   6.218  15.595
  1348G11  C06E92808   5.465   6.158  15.670
  1348G11  C07Q92809   5.465   6.024  15.675
  1348G11  C07P92810   5.564   5.953  15.611
  1348G11  C07T92811   5.573   5.816  15.630
  1348G11  C07U92812   5.678   5.742  15.576
  1348G11  C07V92813   5.692   5.605  15.605
  1348G11  C08492814   5.596   5.546  15.680
  1348G11  C08C92815   5.489   5.617  15.733
  1348G11  C08B92816   5.391   5.550  15.808
  1348G11  C08A92817   5.288   5.631  15.858
  1348G11  C08992818   5.276   5.766  15.842
  1348G11  C08892819   5.161   5.833  15.891
  1348G11  C08792820   5.151   5.967  15.870
  1348G11  C08692821   5.255   6.028  15.800
  1348G11  C08X92822   5.057   5.762  15.959
  1348G11  C08T92823   5.067   5.617  15.959
  1348G11  C08D92824   5.381   5.825  15.775
  1348G11  C08U92825   5.187   5.563  15.919
  1348G11  C08V92826   5.186   5.426  15.925
  1348G11  C0CY92827   5.294   5.351  15.885
  1348G11  C0CX92828   5.281   5.211  15.898
  1348G11  C0CW92829   5.382   5.133  15.848
  1348G11  C0CV92830   5.493   5.200  15.784
  1348G11  C0D492831   5.495   5.341  15.768
  1348G11  C0CU92832   5.599   5.125  15.732
  1348G11  C0CT92833   5.593   4.985  15.739
  1348G11  C0CS92834   5.486   4.924  15.804
  1348G11  C0D692835   5.695   5.197  15.665
  1348G11  C0EC92836   5.696   5.336  15.650
  1348G11  C07X92837   5.792   5.394  15.569
  1348G11  C0DL92838   5.799   5.121  15.608
  1348G11  C0DK92839   5.893   5.183  15.532
  1348G11  C0DN92840   5.965   5.080  15.480
  1348G11  C0D892841   5.806   4.976  15.613
  1348G11  C08W92842   5.069   5.377  15.980
  1348G11  C0CQ92843   5.057   5.231  16.001
  1348G11  C09392844   5.395   5.415  15.820
  1348G11  C09292845   5.595   5.408  15.703
  1348G11  C08592846   5.480   5.752  15.707
  1348G11  C07S92847   5.370   5.960  15.753
  1348G11  C06F92848   5.361   6.228  15.731
  1348G11  C07O92849   5.654   6.017  15.527
  1348G11  C07N92850   5.748   5.938  15.458
  1348G11  C05D92851   5.581   6.353  15.608
  1348G11  C05C92852   5.481   6.422  15.674
  1348G11  C05N92853   5.493   6.553  15.631
  1348G11  C05M92854   5.696   6.674  15.330
  1348G11  C05I92855   5.846   6.624  15.155
  1348G11  C06192856   6.000   6.725  14.937
  1348G11  C02Q92857   6.022   6.897  14.770
  1348G11  C02O92858   5.887   7.136  14.671
  1348G11  C03Q92859   5.803   7.012  15.000
  1348G11  C03O92860   5.602   7.075  15.115
  1348G11  C03L92861   5.367   7.338  15.037
  1348G11  C02S92862   5.647   7.271  14.796
  1348G11  C02T92863   5.525   7.476  14.660
  1348G11  C03K92864   5.300   7.445  14.966
  1348G11  C03I92865   5.473   7.590  14.602
  1348G11  C03G92866   5.378   7.831  14.497
  1348G11  H00D92867   5.349   7.933  14.477
  1348G11  C03J92868   5.189   7.672  14.835
  1348G11  C03W92869   4.951   7.803  14.911
  1348G11  C04I92870   4.914   7.632  15.068
  1348G11  C04K92871   4.768   7.492  15.262
  1348G11  C04N92872   4.714   7.422  15.369
  1348G11  C04X92873   4.727   7.244  15.541
  1348G11  C05092874   4.732   7.052  15.706
  1348G11  C05W92875   5.004   7.016  15.627
  1348G11  C05S92876   4.874   6.641  15.870
  1348G11  C05R92877   5.164   6.798  15.762
  1348G11  C05O92878   5.398   6.643  15.681
  1348G11  C05B92879   5.363   6.362  15.722
  1348G11  C05A92880   5.064   6.496  15.877
  1348G11  C07R92881   5.253   6.172  15.792
  1348G11  C08N92882   5.036   6.039  15.908
  1348G11  C08M92883   4.943   5.970  15.986
  1348G11  C08L92884   4.828   6.045  16.027
  1348G11  C09192885   4.919   6.499  15.875
  1348G11  C09K92886   4.583   6.382  15.857
  1348G11  H00M92887   4.564   6.430  15.762
  1348G11  C08K92888   4.818   6.179  15.989
  1348G11  C09J92889   4.495   6.290  15.924
  1348G11  C09I92890   4.387   6.198  15.891
  1348G11  C09L92891   4.280   6.209  15.796
  1348G11  H00N92892   4.266   6.299  15.739
  1348G11  C09Q92893   4.201   6.105  15.791
  1348G11  H00O92894   4.116   6.112  15.724
  1348G11  O00B92895   4.221   5.987  15.861
  1348G11  C09G92896   4.316   5.972  15.954
  1348G11  C09F92897   4.311   5.841  16.016
  1348G11  O00A92898   4.200   5.766  15.984
  1348G11  C09P92899   4.177   5.666  16.077
  1348G11  H00P92900   4.094   5.678  16.144
  1348G11  C09O92901   4.287   5.575  16.096
  1348G11  C09D92902   4.409   5.641  16.121
  1348G11  C09C92903   4.530   5.583  16.164
  1348G11  C09N92904   4.571   5.446  16.171
  1348G11  C09T92905   4.505   5.340  16.112
  1348G11  C09S92906   4.366   5.336  16.090
  1348G11  C0CP92907   4.341   5.203  16.057
  1348G11  C0CN92908   4.454   5.131  16.049
  1348G11  C0CO92909   4.440   4.996  16.014
  1348G11  H01492910   4.532   4.940  16.019
  1348G11  C0CZ92911   4.311   4.944  15.990
  1348G11  H01592912   4.309   4.843  15.953
  1348G11  C0D092913   4.195   5.025  15.994
  1348G11  C0G592914   4.060   4.981  15.976
  1348G11  H01F92915   4.033   4.881  15.946
  1348G11  C0G492916   3.959   5.070  15.986
  1348G11  H01G92917   3.859   5.042  15.958
  1348G11  O00H92918   3.971   5.207  16.010
  1348G11  C0D292919   4.102   5.247  16.034
  1348G11  C09V92920   4.133   5.383  16.062
  1348G11  H00Q92921   4.053   5.453  16.044
  1348G11  C0D192922   4.212   5.159  16.033
  1348G11  C09R92923   4.264   5.433  16.090
  1348G11  C09H92924   4.399   6.079  15.972
  1348G11  C09E92925   4.414   5.787  16.099
  1348G11  C09B92926   4.638   5.653  16.213
  1348G11  C08Z92927   4.729   5.966  16.089
  1348G11  C08O92928   4.955   5.832  16.016
  1348G11  C09A92929   4.753   5.578  16.237
  1348G11  C08S92930   4.995   5.500  16.001
  1348G11  C09992931   4.716   5.446  16.203
  1348G11  C09U92932   4.566   5.213  16.097
  1348G11  C0BO92933   4.845   4.826  16.171
  1348G11  C0CL92934   4.947   5.179  16.060
  1348G11  C0D392935   5.169   5.158  15.958
  1348G11  C0D592936   5.381   4.998  15.863
  1348G11  C0BR92937   5.054   4.814  16.050
  1348G11  C0BQ92938   4.951   4.754  16.117
  1348G11  C0BL92939   4.732   4.630  16.242
  1348G11  C0AF92940   4.722   4.358  16.253
  1348G11  C0BH92941   5.038   4.403  16.075
  1348G11  C0BG92942   5.147   4.329  16.029
  1348G11  C0BD92943   5.024   4.123  16.081
  1348G11  C0AG92944   4.709   4.224  16.233
  1348G11  C0AI92945   4.604   4.025  16.331
  1348G11  C0AV92946   4.661   3.781  16.429
  1348G11  C0BB92947   4.887   3.787  16.138
  1348G11  O00C92948   4.823   3.587  16.424
  1348G11  C0BC92949   4.995   3.701  16.119
  1348G11  C0B992950   5.016   3.984  16.087
  1348G11  O00E92951   5.372   3.906  16.006
  1348G11  C0CA92952   5.481   3.954  15.940
  1348G11  O00F92953   5.568   3.882  15.885
  1348G11  C0BF92954   5.144   4.189  16.044
  1348G11  C0C592955   5.477   4.102  15.930
  1348G11  C0C492956   5.596   4.158  15.872
  1348G11  H01192957   5.681   4.097  15.846
  1348G11  C0C892958   5.262   4.387  15.976
  1348G11  C0C292959   5.594   4.296  15.853
  1348G11  C0C392960   5.703   4.368  15.795
  1348G11  C0DY92961   5.817   4.313  15.731
  1348G11  H01692962   5.854   4.212  15.723
  1348G11  C0DX92963   5.869   4.421  15.645
  1348G11  C0DW92964   5.912   4.378  15.512
  1348G11  C0BY92965   5.372   4.590  15.905
  1348G11  C0DB92966   5.688   4.500  15.743
  1348G11  C0CC92967   5.483   4.788  15.816
  1348G11  C0D792968   5.697   4.907  15.678
  1348G11  C0DZ92969   5.786   4.541  15.654
  1348G11  C0DM92970   5.916   4.953  15.525
  1348G11  C0DQ92971   5.950   4.616  15.411
  1348G11  C0DV92972   5.951   4.468  15.411
  1348G11  C0E092973   5.947   4.243  15.470
  1348G11  C0FO92974   6.238   4.183  15.264
  1348G11  C0E392975   6.040   4.154  15.537
  1348G11  H01792976   6.060   4.149  15.643
  1348G11  C0GV92977   6.325   4.096  15.331
  1348G11  C0ES92978   6.295   4.297  15.209
  1348G11  C0GQ92979   6.655   4.213  15.240
  1348G11  C0FJ92980   6.700   4.491  15.006
  1348G11  C0ED92981   6.424   4.519  15.074
  1348G11  C0ER92982   6.396   4.674  14.761
  1348G11  C0EP92983   6.302   4.868  14.840
  1348G11  C0E692984   6.214   4.648  15.138
  1348G11  C0DE92985   6.123   4.915  15.265
  1348G11  C0EA92986   6.240   5.099  14.946
  1348G11  C0DF92987   6.150   5.046  15.311
  1348G11  C08092988   6.138   5.361  15.136
  1348G11  C0DO92989   6.059   5.126  15.388
  1348G11  C0DJ92990   5.884   5.322  15.505
  1348G11  C07K92991   6.038   5.573  15.271
  1348G11  C07W92992   5.788   5.529  15.539
  1348G11  C08392993   5.764   5.803  15.486
  1348G11  C07J92994   6.020   5.711  15.237
  1348G11  C06O92995   5.989   5.984  15.191
  1348G11  C06M92996   5.833   6.006  15.369
  1358G11  C07192997   3.247   5.398  12.168
  1358G11  C07L92998   3.269   5.537  12.159
  1358G11  C07M92999   3.171   5.628  12.186
  1358G11  C07Y93000   3.198   5.763  12.168
  1358G11  C08193001   3.324   5.815  12.120
  1358G11  C08293002   3.330   5.954  12.099
  1358G11  C0DI93003   3.429   6.032  12.023
  1358G11  C0DH93004   3.554   5.996  11.962
  1358G11  C0DG93005   3.610   6.104  11.884
  1358G11  C0E993006   3.745   6.149  11.873
  1358G11  C0E893007   3.739   6.298  11.878
  1358G11  C0E793008   3.849   6.402  11.881
  1358G11  C0EB93009   3.987   6.363  11.835
  1358G11  C0EF93010   4.108   6.447  11.824
  1358G11  C0EE93011   4.154   6.558  11.898
  1358G11  C0FD93012   4.285   6.552  11.946
  1358G11  C0FE93013   4.382   6.447  11.934
  1358G11  H01B93014   4.351   6.357  11.883
  1358G11  C0FF93015   4.515   6.456  11.969
  1358G11  H01A93016   4.591   6.383  11.946
  1358G11  C0FG93017   4.555   6.573  12.031
  1358G11  H01893018   4.662   6.586  12.040
  1358G11  C0FH93019   4.463   6.678  12.062
  1358G11  C0FI93020   4.501   6.794  12.141
  1358G11  H01993021   4.605   6.805  12.170
  1358G11  O00K93022   4.417   6.882  12.195
  1358G11  C0FL93023   4.285   6.861  12.155
  1358G11  C0FK93024   4.234   6.759  12.063
  1358G11  C0FM93025   4.107   6.763  12.006
  1358G11  C0FN93026   4.026   6.872  12.039
  1358G11  C0FP93027   4.065   6.955  12.143
  1358G11  C0GO93028   3.984   7.047  12.198
  1358G11  C0GN93029   3.994   7.109  12.322
  1358G11  C0GR93030   4.121   7.092  12.388
  1358G11  C0GS93031   4.145   7.135  12.520
  1358G11  H01Q93032   4.239   7.118  12.569
  1358G11  C0GT93033   4.031   7.190  12.583
  1358G11  H01O93034   4.029   7.214  12.688
  1358G11  C0GU93035   3.909   7.216  12.518
  1358G11  H01P93036   3.818   7.253  12.563
  1358G11  O00L93037   4.222   7.027  12.318
  1358G11  C0GM93038   3.889   7.179  12.382
  1358G11  C0GL93039   3.773   7.196  12.304
  1358G11  H01R93040   3.683   7.246  12.338
  1358G11  C0GK93041   3.765   7.154  12.169
  1358G11  C0GP93042   3.667   7.140  12.068
  1358G11  C0E293043   3.726   7.074  11.951
  1358G11  C0E193044   3.620   6.997  11.891
  1358G11  C0DU93045   3.613   6.858  11.890
  1358G11  C0DT93046   3.715   6.764  11.891
  1358G11  C0E493047   3.854   6.784  11.911
  1358G11  C0E593048   3.920   6.661  11.899
  1358G11  C0DS93049   3.692   6.624  11.897
  1358G11  C0DR93050   3.558   6.587  11.912
  1358G11  C0DD93051   3.514   6.459  11.929
  1358G11  C0DC93052   3.369   6.481  11.967
  1358G11  C0DP93053   3.322   6.619  11.959
  1358G11  C0DA93054   3.186   6.675  11.968
  1358G11  C0D993055   3.059   6.607  11.996
  1358G11  C0CR93056   2.938   6.681  11.983
  1358G11  C0C093057   2.938   6.815  11.948
  1358G11  C0BZ93058   2.825   6.897  11.932
  1358G11  C0C193059   2.835   7.038  11.921
  1358G11  C0C793060   2.721   7.115  11.903
  1358G11  C0C693061   2.725   7.254  11.897
  1358G11  C0C993062   2.610   7.326  11.870
  1358G11  C0B893063   2.616   7.466  11.874
  1358G11  C0B793064   2.503   7.542  11.837
  1358G11  C0B693065   2.476   7.683  11.856
  1358G11  C0B593066   2.511   7.733  11.979
  1358G11  H00Z93067   2.572   7.672  12.044
  1358G11  C0B493068   2.419   7.839  12.014
  1358G11  H01093069   2.389   7.892  12.103
  1358G11  C0B393070   2.322   7.841  11.909
  1358G11  C0AP93071   2.178   7.833  11.901
  1358G11  C0AQ93072   2.149   7.738  11.797
  1358G11  C0AR93073   2.029   7.667  11.799
  1358G11  C0AS93074   2.039   7.548  11.728
  1358G11  C0AT93075   2.156   7.469  11.714
  1358G11  C0BA93076   2.274   7.539  11.735
  1358G11  C0AU93077   2.153   7.332  11.724
  1358G11  C0BE93078   2.266   7.263  11.761
  1358G11  C0BI93079   2.253   7.125  11.792
  1358G11  C0BJ93080   2.129   7.056  11.776
  1358G11  C0BK93081   2.120   6.923  11.810
  1358G11  C0BW93082   2.230   6.857  11.856
  1358G11  C0BV93083   2.355   6.920  11.860
  1358G11  C0BU93084   2.469   6.852  11.898
  1358G11  C0BX93085   2.592   6.911  11.899
  1358G11  C0BT93086   2.457   6.713  11.935
  1358G11  C0CD93087   2.572   6.645  11.971
  1358G11  C0CB93088   2.696   6.702  11.962
  1358G11  C0CE93089   2.557   6.518  12.022
  1358G11  C0CK93090   2.429   6.460  12.036
  1358G11  C0BS93091   2.318   6.524  11.987
  1358G11  C0CJ93092   2.195   6.459  11.998
  1358G11  C0BP93093   2.088   6.527  11.940
  1358G11  C0CI93094   1.965   6.463  11.927
  1358G11  C0CH93095   1.855   6.537  11.889
  1358G11  H01293096   1.760   6.487  11.886
  1358G11  C0BN93097   1.862   6.668  11.839
  1358G11  C0CG93098   1.753   6.740  11.786
  1358G11  C0CF93099   1.630   6.674  11.767
  1358G11  H01393100   1.629   6.566  11.775
  1358G11  O00G93101   1.517   6.736  11.727
  1358G11  C0AA93102   1.527   6.875  11.734
  1358G11  C0A993103   1.408   6.941  11.716
  1358G11  H00U93104   1.316   6.889  11.691
  1358G11  C0A893105   1.409   7.080  11.725
  1358G11  H00V93106   1.314   7.132  11.724
  1358G11  C0A793107   1.524   7.150  11.758
  1358G11  C0A693108   1.646   7.086  11.748
  1358G11  C0A593109   1.775   7.146  11.735
  1358G11  C0A493110   1.789   7.293  11.740
  1358G11  C0A393111   1.710   7.402  11.788
  1358G11  C0A293112   1.595   7.374  11.865
  1358G11  C0A193113   1.555   7.446  11.973
  1358G11  C0A093114   1.610   7.553  12.054
  1358G11  C09Z93115   1.536   7.579  12.174
  1358G11  C09Y93116   1.587   7.673  12.268
  1358G11  H00Y93117   1.534   7.692  12.360
  1358G11  C09X93118   1.704   7.743  12.248
  1358G11  C09W93119   1.746   7.829  12.354
  1358G11  H00R93120   1.688   7.829  12.445
  1358G11  C0AX93121   1.868   7.897  12.339
  1358G11  H00S93122   1.916   7.956  12.416
  1358G11  C0AW93123   1.942   7.882  12.222
  1358G11  H00T93124   2.042   7.920  12.225
  1358G11  C0AN93125   1.898   7.794  12.120
  1358G11  C0AO93126   1.972   7.773  12.007
  1358G11  C0AM93127   1.781   7.717  12.132
  1358G11  C0B293128   1.415   7.522  12.212
  1358G11  O00D93129   1.357   7.536  12.320
  1358G11  C0B193130   1.351   7.430  12.122
  1358G11  H00W93131   1.263   7.378  12.156
  1358G11  C0AL93132   1.739   7.625  12.031
  1358G11  C0AK93133   1.818   7.616  11.916
  1358G11  C0B093134   1.427   7.395  12.011
  1358G11  C0AZ93135   1.391   7.301  11.909
  1358G11  H00X93136   1.298   7.246  11.913
  1358G11  C0AJ93137   1.809   7.508  11.811
  1358G11  C0AH93138   1.911   7.336  11.690
  1358G11  C0AE93139   1.891   7.072  11.740
  1358G11  C0AD93140   1.883   6.933  11.774
  1358G11  C0AY93141   1.503   7.277  11.821
  1358G11  C0AB93142   1.646   6.946  11.748
  1358G11  C0AC93143   1.760   6.874  11.764
  1358G11  C0BM93144   1.985   6.731  11.847
  1358G11  C0CM93145   1.960   6.321  11.946
  1358G11  C09M93146   2.047   6.269  12.049
  1358G11  C09893147   1.990   6.165  12.126
  1358G11  C08R93148   2.051   6.064  12.207
  1358G11  C08Q93149   1.965   5.970  12.264
  1358G11  C08P93150   1.975   5.827  12.298
  1358G11  C08Y93151   1.849   5.756  12.288
  1358G11  C09793152   1.739   5.813  12.234
  1358G11  C09693153   1.669   5.718  12.161
  1358G11  C09093154   1.706   5.597  12.225
  1358G11  C09593155   1.654   5.469  12.199
  1358G11  C09493156   1.695   5.349  12.269
  1358G11  C08J93157   1.810   5.315  12.353
  1358G11  C08I93158   1.839   5.181  12.327
  1358G11  C08H93159   1.983   5.167  12.335
  1358G11  C08G93160   2.040   5.303  12.348
  1358G11  C08F93161   2.173   5.363  12.369
  1358G11  C08E93162   2.281   5.276  12.395
  1358G11  C05993163   2.277   5.147  12.458
  1358G11  C05893164   2.400   5.081  12.483
  1358G11  C05793165   2.410   4.945  12.527
  1358G11  C05693166   2.288   4.882  12.553
  1358G11  C05593167   2.163   4.947  12.559
  1358G11  C05493168   2.067   4.854  12.519
  1358G11  C05393169   2.127   4.726  12.490
  1358G11  C05293170   2.070   4.614  12.417
  1358G11  C05193171   1.930   4.611  12.382
  1358G11  C05U93172   1.834   4.718  12.388
  1358G11  C05T93173   1.845   4.860  12.412
  1358G11  C06K93174   1.719   4.920  12.432
  1358G11  H00J93175   1.711   5.020  12.472
  1358G11  C06L93176   1.622   4.817  12.411
  1358G11  H00I93177   1.515   4.834  12.414
  1358G11  C05V93178   1.697   4.693  12.383
  1358G11  C06J93179   1.653   4.560  12.363
  1358G11  H00K93180   1.549   4.537  12.373
  1358G11  C05X93181   1.738   4.461  12.316
  1358G11  C06I93182   1.692   4.336  12.272
  1358G11  H00L93183   1.588   4.310  12.257
  1358G11  C04Z93184   1.782   4.233  12.237
  1358G11  C06H93185   1.725   4.113  12.183
  1358G11  H00H93186   1.620   4.097  12.162
  1358G11  C04Y93187   1.823   4.013  12.143
  1358G11  C06G93188   1.779   3.893  12.068
  1358G11  O00993189   1.661   3.873  12.039
  1358G11  O00893190   1.874   3.798  12.034
  1358G11  C04P93191   2.003   3.809  12.059
  1358G11  C04J93192   2.104   3.711  12.028
  1358G11  C04Q93193   2.084   3.593  11.956
  1358G11  H00E93194   1.984   3.561  11.931
  1358G11  C04M93195   2.186   3.509  11.917
  1358G11  C04R93196   2.167   3.387  11.850
  1358G11  H00F93197   2.066   3.355  11.828
  1358G11  C04S93198   2.274   3.313  11.821
  1358G11  H00G93199   2.266   3.222  11.763
  1358G11  O00793200   2.398   3.352  11.841
  1358G11  C03V93201   2.420   3.466  11.917
  1358G11  C03U93202   2.549   3.508  11.937
  1358G11  O00693203   2.644   3.420  11.905
  1358G11  C03F93204   2.771   3.447  11.938
  1358G11  C03E93205   2.813   3.565  12.001
  1358G11  C03D93206   2.715   3.648  12.051
  1358G11  C03C93207   2.745   3.766  12.114
  1358G11  C03B93208   2.887   3.789  12.123
  1358G11  C03A93209   2.927   3.911  12.179
  1358G11  C03993210   2.835   4.005  12.230
  1358G11  C03893211   2.924   4.116  12.269
  1358G11  C03793212   3.055   4.075  12.230
  1358G11  C03693213   3.162   4.155  12.250
  1358G11  C02R93214   3.292   4.138  12.200
  1358G11  C03593215   3.347   4.264  12.221
  1358G11  C03R93216   3.256   4.351  12.279
  1358G11  C03S93217   3.257   4.487  12.256
  1358G11  C04993218   3.145   4.556  12.295
  1358G11  C04893219   3.031   4.486  12.329
  1358G11  C03P93220   3.013   4.341  12.321
  1358G11  C04793221   2.927   4.574  12.372
  1358G11  C04693222   2.800   4.535  12.418
  1358G11  C04593223   2.736   4.410  12.405
  1358G11  C03T93224   2.771   4.285  12.363
  1358G11  C04493225   2.657   4.199  12.364
  1358G11  C04393226   2.552   4.269  12.429
  1358G11  C04293227   2.430   4.235  12.371
  1358G11  C04193228   2.467   4.105  12.309
  1358G11  C04093229   2.371   4.021  12.242
  1358G11  C03Z93230   2.400   3.899  12.174
  1358G11  C04H93231   2.271   3.854  12.128
  1358G11  C04G93232   2.171   3.945  12.155
  1358G11  C03N93233   2.510   3.815  12.138
  1358G11  C03Y93234   2.478   3.698  12.058
  1358G11  C03X93235   2.347   3.665  12.020
  1358G11  C04F93236   2.227   4.050  12.223
  1358G11  C04E93237   2.142   4.156  12.259
  1358G11  C04O93238   2.009   4.148  12.225
  1358G11  C04D93239   2.175   4.272  12.332
  1358G11  C04V93240   2.094   4.382  12.341
  1358G11  C04W93241   1.960   4.378  12.302
  1358G11  C04C93242   2.301   4.315  12.376
  1358G11  C04L93243   2.280   4.453  12.427
  1358G11  C04U93244   2.382   4.522  12.507
  1358G11  C05Q93245   2.372   4.663  12.529
  1358G11  C05P93246   2.498   4.722  12.528
  1358G11  C04T93247   2.592   4.629  12.496
  1358G11  C04B93248   2.526   4.507  12.482
  1358G11  C03M93249   2.614   4.079  12.302
  1358G11  C04A93250   2.598   4.399  12.445
  1358G11  C05H93251   2.728   4.646  12.462
  1358G11  C05G93252   2.812   4.759  12.435
  1358G11  C05F93253   2.775   4.892  12.450
  1358G11  C05E93254   2.850   5.002  12.400
  1358G11  C05L93255   2.976   5.032  12.330
  1358G11  C05K93256   3.066   4.927  12.301
  1358G11  C05J93257   3.050   4.784  12.322
  1358G11  C06693258   3.182   4.980  12.233
  1358G11  C06593259   3.197   5.124  12.205
  1358G11  C06493260   3.105   5.218  12.238
  1358G11  C06N93261   3.322   5.168  12.156
  1358G11  C06993262   3.419   5.075  12.121
  1358G11  C06P93263   3.535   5.123  12.058
  1358G11  C06R93264   3.632   5.040  12.007
  1358G11  C06B93265   3.610   4.904  12.022
  1358G11  C06S93266   3.709   4.815  11.977
  1358G11  C02G93267   3.698   4.680  12.001
  1358G11  C02F93268   3.792   4.589  11.950
  1358G11  C02793269   3.898   4.639  11.878
  1358G11  C02693270   3.980   4.550  11.813
  1358G11  C00E93271   4.082   4.603  11.728
  1358G11  C00D93272   4.163   4.514  11.666
  1358G11  C00C93273   4.260   4.559  11.585
  1358G11  C00B93274   4.281   4.691  11.551
  1358G11  C01593275   4.203   4.782  11.626
  1358G11  C07F93276   4.222   4.920  11.612
  1358G11  C07E93277   4.130   5.007  11.670
  1358G11  C06W93278   4.028   4.959  11.747
  1358G11  C06V93279   4.015   4.825  11.774
  1358G11  C06X93280   3.939   5.047  11.808
  1358G11  C07B93281   3.958   5.185  11.791
  1358G11  C07C93282   4.062   5.231  11.714
  1358G11  C0FU93283   4.082   5.366  11.701
  1358G11  C0F793284   4.187   5.416  11.620
  1358G11  C0F693285   4.192   5.554  11.597
  1358G11  C0F893286   4.284   5.596  11.503
  1358G11  C0F993287   4.298   5.732  11.483
  1358G11  C0FA93288   4.386   5.781  11.383
  1358G11  C0FZ93289   4.460   5.692  11.314
  1358G11  C0G093290   4.556   5.745  11.220
  1358G11  C0GD93291   4.571   5.883  11.193
  1358G11  C0FC93292   4.497   5.970  11.275
  1358G11  C0GH93293   4.505   6.108  11.248
  1358G11  C0EY93294   4.443   6.201  11.334
  1358G11  C0EX93295   4.462   6.338  11.319
  1358G11  C0EW93296   4.404   6.420  11.414
  1358G11  C0FR93297   4.421   6.562  11.411
  1358G11  H01D93298   4.363   6.631  11.470
  1358G11  C0FS93299   4.489   6.619  11.304
  1358G11  H01C93300   4.491   6.726  11.291
  1358G11  C0GJ93301   4.558   6.533  11.219
  1358G11  H01N93302   4.600   6.567  11.126
  1358G11  C0EV93303   4.333   6.367  11.519
  1358G11  C0FT93304   4.287   6.445  11.631
  1358G11  H01E93305   4.327   6.543  11.653
  1358G11  C0EU93306   4.302   6.235  11.522
  1358G11  C0ET93307   4.196   6.183  11.601
  1358G11  C0EI93308   4.161   6.052  11.610
  1358G11  C0F193309   4.242   5.960  11.539
  1358G11  C0F093310   4.337   6.010  11.448
  1358G11  C0EH93311   4.058   6.010  11.703
  1358G11  C0EG93312   3.974   6.105  11.776
  1358G11  C0EJ93313   4.040   5.875  11.720
  1358G11  C0F393314   4.126   5.785  11.647
  1358G11  C0EK93315   3.939   5.823  11.804
  1358G11  C0EL93316   3.842   5.920  11.857
  1358G11  C0EM93317   3.740   5.842  11.922
  1358G11  C0EN93318   3.750   5.707  11.953
  1358G11  C07I93319   3.636   5.660  12.019
  1358G11  C07493320   3.612   5.525  12.036
  1358G11  C07393321   3.492   5.487  12.084
  1358G11  C07293322   3.463   5.351  12.091
  1358G11  C07593323   3.703   5.441  11.974
  1358G11  C07693324   3.814   5.493  11.913
  1358G11  C07893325   3.893   5.408  11.844
  1358G11  C07G93326   3.674   5.306  11.983
  1358G11  C07093327   3.760   5.220  11.923
  1358G11  C07Z93328   3.544   5.763  12.038
  1358G11  C07793329   3.837   5.627  11.891
  1358G11  C0EO93330   3.934   5.686  11.818
  1358G11  C0F493331   4.018   5.596  11.755
  1358G11  C0EQ93332   4.127   6.274  11.682
  1358G11  C0FQ93333   4.533   6.393  11.217
  1358G11  C0GI93334   4.586   6.297  11.129
  1358G11  H01L93335   4.650   6.337  11.052
  1358G11  C0EZ93336   4.363   6.149  11.432
  1358G11  C0GG93337   4.581   6.161  11.142
  1358G11  C0GF93338   4.657   6.073  11.072
  1358G11  H01M93339   4.717   6.101  10.986
  1358G11  C0GE93340   4.646   5.940  11.090
  1358G11  H01K93341   4.702   5.877  11.022
  1358G11  O00J93342   4.632   5.652  11.151
  1358G11  C0GA93343   4.637   5.524  11.189
  1358G11  C0G993344   4.721   5.439  11.122
  1358G11  H01H93345   4.800   5.473  11.055
  1358G11  C0G893346   4.715   5.299  11.140
  1358G11  C0G793347   4.799   5.210  11.067
  1358G11  H01I93348   4.871   5.243  10.994
  1358G11  O00I93349   4.800   5.079  11.098
  1358G11  C0G693350   4.705   5.025  11.181
  1358G11  H01J93351   4.717   4.917  11.185
  1358G11  C02D93352   4.608   5.109  11.245
  1358G11  C02C93353   4.518   5.057  11.341
  1358G11  C01793354   4.494   4.919  11.362
  1358G11  C01693355   4.395   4.868  11.451
  1358G11  O00193356   4.550   4.821  11.274
  1358G11  C01893357   4.539   4.688  11.287
  1358G11  C00993358   4.450   4.639  11.381
  1358G11  C00893359   4.422   4.500  11.407
  1358G11  C00793360   4.454   4.367  11.356
  1358G11  C00693361   4.536   4.352  11.244
  1358G11  C00593362   4.565   4.225  11.182
  1358G11  C00493363   4.508   4.096  11.196
  1358G11  C00393364   4.399   4.050  11.289
  1358G11  C00293365   4.357   3.917  11.288
  1358G11  C00P93366   4.254   3.865  11.376
  1358G11  C00O93367   4.203   3.736  11.362
  1358G11  C00N93368   4.103   3.687  11.446
  1358G11  C01093369   4.042   3.570  11.419
  1358G11  C01193370   3.937   3.518  11.494
  1358G11  C01Q93371   3.869   3.401  11.451
  1358G11  C01U93372   3.907   3.325  11.340
  1358G11  C01293373   4.014   3.384  11.269
  1358G11  H00093374   4.062   3.330  11.188
  1358G11  C01V93375   3.840   3.206  11.311
  1358G11  H00793376   3.866   3.146  11.225
  1358G11  O00593377   3.748   3.151  11.398
  1358G11  C01W93378   3.715   3.224  11.511
  1358G11  C03193379   3.621   3.169  11.596
  1358G11  C03293380   3.583   3.229  11.713
  1358G11  H00A93381   3.509   3.178  11.774
  1358G11  C03393382   3.640   3.358  11.744
  1358G11  H00B93383   3.610   3.399  11.839
  1358G11  C01O93384   3.724   3.420  11.646
  1358G11  C01N93385   3.770   3.552  11.661
  1358G11  C01M93386   3.712   3.643  11.765
  1358G11  C01L93387   3.588   3.674  11.849
  1358G11  C01K93388   3.621   3.791  11.925
  1358G11  C01Y93389   3.527   3.876  11.988
  1358G11  C02I93390   3.395   3.831  12.010
  1358G11  C02N93391   3.302   3.919  12.081
  1358G11  C02M93392   3.171   3.870  12.103
  1358G11  C02L93393   3.129   3.746  12.053
  1358G11  C02K93394   3.224   3.663  11.981
  1358G11  C02U93395   3.174   3.543  11.922
  1358G11  C02V93396   3.039   3.512  11.943
  1358G11  C03H93397   2.996   3.381  11.903
  1358G11  H00C93398   3.067   3.302  11.883
  1358G11  C02W93399   3.243   3.469  11.833
  1358G11  C02X93400   3.370   3.518  11.812
  1358G11  C02Y93401   3.393   3.455  11.689
  1358G11  H00893402   3.463   3.473  11.610
  1358G11  C02Z93403   3.303   3.341  11.669
  1358G11  O00493404   3.313   3.239  11.598
  1358G11  O00393405   3.214   3.362  11.756
  1358G11  C02J93406   3.361   3.702  11.956
  1358G11  C01Z93407   3.569   4.003  12.023
  1358G11  C02093408   3.695   4.045  11.980
  1358G11  C01I93409   3.781   3.961  11.916
  1358G11  C01H93410   3.889   4.008  11.836
  1358G11  C00K93411   3.955   3.924  11.752
  1358G11  C01S93412   3.910   3.796  11.734
  1358G11  C01493413   3.951   3.719  11.628
  1358G11  C00J93414   4.054   3.973  11.665
  1358G11  C00I93415   4.088   4.104  11.671
  1358G11  C00H93416   4.020   4.189  11.761
  1358G11  C00G93417   4.038   4.323  11.750
  1358G11  C00S93418   4.180   4.155  11.580
  1358G11  C00T93419   4.207   4.288  11.592
  1358G11  C00U93420   4.311   4.336  11.508
  1358G11  C00R93421   4.247   4.076  11.487
  1358G11  C00L93422   4.101   3.897  11.558
  1358G11  C02893423   3.922   4.142  11.843
  1358G11  C02393424   3.840   4.226  11.915
  1358G11  C02493425   3.867   4.363  11.902
  1358G11  C02193426   3.727   4.178  11.979
  1358G11  C02293427   3.642   4.268  12.034
  1358G11  C02H93428   3.671   4.405  12.035
  1358G11  C03093429   3.582   4.501  12.085
  1358G11  C03493430   3.474   4.452  12.159
  1358G11  C02P93431   3.530   4.222  12.092
  1358G11  C02B93432   3.486   4.091  12.079
  1358G11  C01J93433   3.748   3.826  11.906
  1358G11  C01X93434   3.446   3.631  11.859
  1358G11  C01T93435   3.803   3.748  11.805
  1358G11  H00993436   3.581   3.073  11.567
  1358G11  C01P93437   3.767   3.352  11.534
  1358G11  C01R93438   3.886   3.594  11.597
  1358G11  C00Z93439   4.082   3.499  11.308
  1358G11  O00093440   4.185   3.537  11.228
  1358G11  C00M93441   4.051   3.765  11.546
  1358G11  C00Y93442   4.245   3.658  11.257
  1358G11  C01393443   4.345   3.707  11.174
  1358G11  H00193444   4.382   3.637  11.101
  1358G11  C00Q93445   4.207   3.946  11.475
  1358G11  C00193446   4.410   3.828  11.188
  1358G11  C00093447   4.509   3.872  11.108
  1358G11  H00693448   4.537   3.812  11.023
  1358G11  C00W93449   4.340   4.124  11.393
  1358G11  C01G93450   4.563   4.001  11.108
  1358G11  H00593451   4.631   4.024  11.028
  1358G11  C01C93452   4.660   4.262  11.077
  1358G11  H00293453   4.726   4.194  11.024
  1358G11  C01B93454   4.685   4.402  11.083
  1358G11  C01D93455   4.780   4.481  11.006
  1358G11  H00393456   4.830   4.418  10.933
  1358G11  C01E93457   4.781   4.611  11.027
  1358G11  H00493458   4.861   4.670  10.985
  1358G11  O00293459   4.697   4.677  11.113
  1358G11  C01A93460   4.613   4.457  11.188
  1358G11  C00V93461   4.376   4.266  11.409
  1358G11  C01993462   4.619   4.601  11.202
  1358G11  C02E93463   4.438   5.143  11.416
  1358G11  C0FX93464   4.451   5.284  11.398
  1358G11  C0FW93465   4.365   5.372  11.468
  1358G11  C0GB93466   4.539   5.333  11.303
  1358G11  C0G393467   4.336   5.097  11.499
  1358G11  C07H93468   4.250   5.185  11.565
  1358G11  C0GC93469   4.625   5.241  11.236
  1358G11  C0G293470   4.543   5.470  11.276
  1358G11  C0G193471   4.454   5.558  11.342
  1358G11  C0FB93472   4.405   5.918  11.369
  1358G11  C0F293473   4.226   5.825  11.559
  1358G11  C0FY93474   4.368   5.508  11.439
  1358G11  C0F593475   4.110   5.647  11.667
  1358G11  C0FV93476   4.268   5.326  11.551
  1358G11  C07993477   3.998   5.457  11.767
  1358G11  C07A93478   3.872   5.273  11.856
  1358G11  C06Y93479   3.837   4.996  11.882
  1358G11  C07D93480   4.146   5.141  11.647
  1358G11  C01F93481   4.320   4.960  11.523
  1358G11  C00A93482   4.381   4.732  11.466
  1358G11  C00X93483   4.341   4.470  11.514
  1358G11  C00F93484   4.135   4.378  11.668
  1358G11  C02993485   4.100   4.735  11.705
  1358G11  C02593486   3.958   4.410  11.821
  1358G11  C06U93487   3.907   4.776  11.850
  1358G11  C02A93488   3.776   4.450  11.964
  1358G11  C05Y93489   3.588   4.636  12.069
  1358G11  C05Z93490   3.485   4.722  12.116
  1358G11  C06093491   3.380   4.671  12.183
  1358G11  C06293492   3.273   4.756  12.229
  1358G11  C06T93493   3.815   4.861  11.899
  1358G11  C06A93494   3.501   4.856  12.095
  1358G11  C06Z93495   3.743   5.084  11.936
  1358G11  C06Q93496   3.559   5.261  12.047
  1358G11  C06893497   3.401   4.940  12.141
  1358G11  C06793498   3.285   4.889  12.201
  1358G11  C06393499   2.986   5.167  12.294
  1358G11  C06C93500   2.883   5.260  12.307
  1358G11  C06D93501   2.761   5.229  12.354
  1358G11  C06E93502   2.645   5.312  12.365
  1358G11  C07Q93503   2.660   5.440  12.326
  1358G11  C07P93504   2.789   5.483  12.289
  1358G11  C07T93505   2.808   5.618  12.263
  1358G11  C07U93506   2.935   5.666  12.232
  1358G11  C07V93507   2.960   5.801  12.214
  1358G11  C08493508   2.850   5.888  12.218
  1358G11  C08C93509   2.724   5.842  12.244
  1358G11  C08B93510   2.620   5.930  12.247
  1358G11  C08A93511   2.497   5.873  12.271
  1358G11  C08993512   2.461   5.740  12.291
  1358G11  C08893513   2.328   5.693  12.304
  1358G11  C08793514   2.306   5.559  12.339
  1358G11  C08693515   2.419   5.475  12.351
  1358G11  C08X93516   2.218   5.780  12.289
  1358G11  C08T93517   2.249   5.917  12.251
  1358G11  C08D93518   2.570   5.656  12.296
  1358G11  C08U93519   2.384   5.955  12.246
  1358G11  C08V93520   2.404   6.082  12.195
  1358G11  C0CY93521   2.528   6.140  12.180
  1358G11  C0CX93522   2.527   6.265  12.129
  1358G11  C0CW93523   2.654   6.318  12.110
  1358G11  C0CV93524   2.768   6.243  12.137
  1358G11  C0D493525   2.758   6.112  12.181
  1358G11  C0CU93526   2.895   6.290  12.110
  1358G11  C0CT93527   2.915   6.420  12.063
  1358G11  C0CS93528   2.800   6.497  12.044
  1358G11  C0D693529   2.996   6.206  12.130
  1358G11  C0EC93530   2.990   6.074  12.168
  1358G11  C07X93531   3.098   5.991  12.169
  1358G11  C0DL93532   3.122   6.255  12.106
  1358G11  C0DK93533   3.237   6.177  12.114
  1358G11  C0DN93534   3.334   6.250  12.058
  1358G11  C0D893535   3.155   6.381  12.051
  1358G11  C08W93536   2.280   6.142  12.165
  1358G11  C0CQ93537   2.289   6.271  12.103
  1358G11  C09393538   2.639   6.064  12.203
  1358G11  C09293539   2.864   6.023  12.185
  1358G11  C08593540   2.698   5.707  12.269
  1358G11  C07S93541   2.548   5.522  12.322
  1358G11  C06F93542   2.523   5.269  12.395
  1358G11  C07O93543   2.898   5.397  12.274
  1358G11  C07N93544   3.022   5.440  12.231
  1358G11  C05D93545   2.753   5.104  12.401
  1358G11  C05C93546   2.632   5.063  12.452
  1358G11  C05N93547   2.644   4.929  12.486
  1358G11  C05M93548   2.933   4.717  12.379
  1358G11  C05I93549   3.157   4.696  12.284
  1358G11  C06193550   3.373   4.536  12.202
  1358G11  C02Q93551   3.457   4.314  12.162
  1358G11  C02O93552   3.359   4.043  12.118
  1358G11  C03Q93553   3.143   4.281  12.304
  1358G11  C03O93554   2.900   4.253  12.318
  1358G11  C03L93555   2.692   3.979  12.236
  1358G11  C02S93556   3.066   3.950  12.174
  1358G11  C02T93557   2.989   3.707  12.062
  1358G11  C03K93558   2.646   3.850  12.167
  1358G11  C03I93559   2.947   3.596  12.002
  1358G11  C03G93560   2.859   3.355  11.896
  1358G11  H00D93561   2.824   3.259  11.861
  1358G11  C03J93562   2.582   3.619  12.018
  1358G11  C03W93563   2.316   3.548  11.955
  1358G11  C04I93564   2.238   3.742  12.054
  1358G11  C04K93565   2.040   3.929  12.117
  1358G11  C04N93566   1.958   4.030  12.161
  1358G11  C04X93567   1.916   4.252  12.251
  1358G11  C05093568   1.877   4.486  12.334
  1358G11  C05W93569   2.142   4.494  12.399
  1358G11  C05S93570   1.976   4.921  12.443
  1358G11  C05R93571   2.263   4.744  12.536
  1358G11  C05O93572   2.526   4.863  12.521
  1358G11  C05B93573   2.515   5.141  12.442
  1358G11  C05A93574   2.160   5.068  12.483
  1358G11  C07R93575   2.406   5.341  12.379
  1358G11  C08N93576   2.181   5.506  12.345
  1358G11  C08M93577   2.070   5.594  12.329
  1358G11  C08L93578   1.938   5.533  12.325
  1358G11  C09193579   2.033   5.059  12.418
  1358G11  C09K93580   1.762   5.142  12.210
  1358G11  H00M93581   1.789   5.064  12.139
  1358G11  C08K93582   1.930   5.392  12.345
  1358G11  C09J93583   1.662   5.238  12.187
  1358G11  C09I93584   1.604   5.286  12.064
  1358G11  C09L93585   1.560   5.214  11.947
  1358G11  H00N93586   1.573   5.108  11.936
  1358G11  C09Q93587   1.516   5.292  11.846
  1358G11  H00O93588   1.502   5.243  11.751
  1358G11  O00B93589   1.510   5.429  11.851
  1358G11  C09G93590   1.552   5.504  11.963
  1358G11  C09F93591   1.540   5.641  11.949
  1358G11  O00A93592   1.487   5.681  11.826
  1358G11  C09P93593   1.439   5.808  11.831
  1358G11  H00P93594   1.340   5.815  11.872
  1358G11  C09O93595   1.547   5.901  11.857
  1358G11  C09D93596   1.615   5.873  11.982
  1358G11  C09C93597   1.703   5.965  12.061
  1358G11  C09N93598   1.764   6.094  12.032
  1358G11  C09T93599   1.786   6.133  11.893
  1358G11  C09S93600   1.680   6.112  11.793
  1358G11  C0CP93601   1.707   6.207  11.695
  1358G11  C0CN93602   1.814   6.296  11.726
  1358G11  C0CO93603   1.841   6.395  11.637
  1358G11  H01493604   1.924   6.461  11.655
  1358G11  C0CZ93605   1.763   6.412  11.528
  1358G11  H01593606   1.788   6.494  11.463
  1358G11  C0D093607   1.654   6.323  11.498
  1358G11  C0G593608   1.580   6.322  11.372
  1358G11  H01F93609   1.603   6.394  11.295
  1358G11  C0G493610   1.468   6.240  11.366
  1358G11  H01G93611   1.410   6.248  11.276
  1358G11  O00H93612   1.423   6.152  11.459
  1358G11  C0D293613   1.502   6.143  11.570
  1358G11  C09V93614   1.482   6.041  11.666
  1358G11  H00Q93615   1.397   5.976  11.652
  1358G11  C0D193616   1.617   6.219  11.587
  1358G11  C09R93617   1.572   6.018  11.777
  1358G11  C09H93618   1.601   5.427  12.071
  1358G11  C09E93619   1.595   5.744  12.038
  1358G11  C09B93620   1.750   5.936  12.186
  1358G11  C08Z93621   1.835   5.616  12.280
  1358G11  C08O93622   2.084   5.736  12.305
  1358G11  C09A93623   1.839   6.027  12.244
  1358G11  C08S93624   2.190   6.042  12.212
  1358G11  C09993625   1.857   6.127  12.148
  1358G11  C09U93626   1.863   6.252  11.861
  1358G11  C0BO93627   2.097   6.665  11.898
  1358G11  C0CL93628   2.174   6.337  12.062
  1358G11  C0D393629   2.416   6.331  12.089
  1358G11  C0D593630   2.670   6.442  12.057
  1358G11  C0BR93631   2.329   6.650  11.941
  1358G11  C0BQ93632   2.223   6.722  11.896
  1358G11  C0BL93633   1.992   6.865  11.809
  1358G11  C0AF93634   2.017   7.126  11.736
  1358G11  C0BH93635   2.367   7.051  11.828
  1358G11  C0BG93636   2.486   7.118  11.848
  1358G11  C0BD93637   2.382   7.335  11.793
  1358G11  C0AG93638   2.033   7.258  11.705
  1358G11  C0AI93639   1.916   7.472  11.732
  1358G11  C0AV93640   1.937   7.688  11.899
  1358G11  C0BB93641   2.270   7.683  11.750
  1358G11  O00C93642   2.093   7.847  12.006
  1358G11  C0BC93643   2.375   7.759  11.801
  1358G11  C0B993644   2.392   7.479  11.781
  1358G11  O00E93645   2.734   7.533  11.914
  1358G11  C0CA93646   2.846   7.470  11.936
  1358G11  O00F93647   2.947   7.537  11.962
  1358G11  C0BF93648   2.497   7.257  11.838
  1358G11  C0C593649   2.843   7.325  11.927
  1358G11  C0C493650   2.966   7.249  11.931
  1358G11  H01193651   3.060   7.299  11.952
  1358G11  C0C893652   2.601   7.048  11.884
  1358G11  C0C293653   2.958   7.103  11.925
  1358G11  C0C393654   3.071   7.017  11.929
  1358G11  C0DY93655   3.203   7.057  11.949
  1358G11  H01693656   3.244   7.155  11.929
  1358G11  C0DX93657   3.276   6.933  11.963
  1358G11  C0DW93658   3.414   6.935  11.964
  1358G11  C0BY93659   2.705   6.837  11.930
  1358G11  C0DB93660   3.061   6.883  11.945
  1358G11  C0CC93661   2.809   6.626  11.996
  1358G11  C0D793662   3.044   6.472  12.035
  1358G11  C0DZ93663   3.182   6.818  11.960
  1358G11  C0DM93664   3.293   6.382  12.029
  1358G11  C0DQ93665   3.452   6.683  11.927
  1358G11  C0DV93666   3.484   6.818  11.927
  1358G11  C0E093667   3.503   7.040  11.956
  1358G11  C0FO93668   3.847   7.023  11.995
  1358G11  C0E393669   3.524   7.134  12.064
  1358G11  H01793670   3.451   7.164  12.138
  1358G11  C0GV93671   3.874   7.084  12.116
  1358G11  C0ES93672   3.911   6.897  11.968
  1358G11  C0GQ93673   4.189   6.944  12.211
  1358G11  C0FJ93674   4.331   6.662  12.024
  1358G11  C0ED93675   4.060   6.657  11.926
  1358G11  C0ER93676   4.184   6.399  11.709
  1358G11  C0EP93677   4.028   6.241  11.768
  1358G11  C0E693678   3.821   6.550  11.888
  1358G11  C0DE93679   3.596   6.335  11.904
  1358G11  C0EA93680   3.855   6.057  11.837
  1358G11  C0DF93681   3.532   6.214  11.904
  1358G11  C08093682   3.609   5.876  11.979
  1358G11  C0DO93683   3.433   6.174  12.004
  1358G11  C0DJ93684   3.220   6.035  12.135
  1358G11  C07K93685   3.420   5.719  12.098
  1358G11  C07W93686   3.087   5.853  12.191
  1358G11  C08393687   3.045   5.579  12.222
  1358G11  C07J93688   3.397   5.581  12.116
  1358G11  C06O93689   3.343   5.307  12.138
  1358G11  C06M93690   3.125   5.352  12.213
  1368G11  C07193691   2.157   1.481   5.459
  1368G11  C07L93692   2.233   1.594   5.512
  1368G11  C07M93693   2.314   1.675   5.425
  1368G11  C07Y93694   2.383   1.789   5.481
  1368G11  C08193695   2.374   1.827   5.614
  1368G11  C08293696   2.456   1.936   5.661
  1368G11  C0DI93697   2.448   2.010   5.794
  1368G11  C0DH93698   2.362   2.001   5.911
  1368G11  C0DG93699   2.410   2.096   6.011
  1368G11  C0E993700   2.323   2.180   6.102
  1368G11  C0E893701   2.397   2.306   6.098
  1368G11  C0E793702   2.407   2.417   6.199
  1368G11  C0EB93703   2.344   2.398   6.327
  1368G11  C0EF93704   2.380   2.462   6.452
  1368G11  C0EE93705   2.491   2.536   6.497
  1368G11  C0FD93706   2.545   2.503   6.621
  1368G11  C0FE93707   2.520   2.387   6.692
  1368G11  H01B93708   2.466   2.304   6.649
  1368G11  C0FF93709   2.556   2.373   6.825
  1368G11  H01A93710   2.533   2.285   6.882
  1368G11  C0FG93711   2.638   2.472   6.880
  1368G11  H01893712   2.676   2.450   6.979
  1368G11  C0FH93713   2.687   2.583   6.803
  1368G11  C0FI93714   2.776   2.683   6.854
  1368G11  H01993715   2.821   2.667   6.951
  1368G11  O00K93716   2.827   2.778   6.776
  1368G11  C0FL93717   2.767   2.795   6.653
  1368G11  C0FK93718   2.672   2.708   6.601
  1368G11  C0FM93719   2.624   2.731   6.469
  1368G11  C0FN93720   2.658   2.852   6.400
  1368G11  C0FP93721   2.752   2.940   6.464
  1368G11  C0GO93722   2.796   3.055   6.401
  1368G11  C0GN93723   2.901   3.137   6.440
  1368G11  C0GR93724   2.954   3.102   6.564
  1368G11  C0GS93725   3.061   3.175   6.616
  1368G11  H01Q93726   3.111   3.148   6.708
  1368G11  C0GT93727   3.126   3.265   6.536
  1368G11  H01O93728   3.214   3.315   6.572
  1368G11  C0GU93729   3.079   3.294   6.407
  1368G11  H01P93730   3.127   3.363   6.341
  1368G11  O00L93731   2.904   2.991   6.636
  1368G11  C0GM93732   2.967   3.227   6.357
  1368G11  C0GL93733   2.910   3.240   6.228
  1368G11  H01R93734   2.963   3.302   6.157
  1368G11  C0GK93735   2.795   3.172   6.192
  1368G11  C0GP93736   2.735   3.141   6.063
  1368G11  C0E293737   2.619   3.058   6.090
  1368G11  C0E193738   2.608   2.971   5.972
  1368G11  C0DU93739   2.589   2.827   5.977
  1368G11  C0DT93740   2.528   2.749   6.075
  1368G11  C0E493741   2.535   2.774   6.211
  1368G11  C0E593742   2.513   2.650   6.274
  1368G11  C0DS93743   2.508   2.611   6.059
  1368G11  C0DR93744   2.567   2.556   5.946
  1368G11  C0DD93745   2.572   2.420   5.912
  1368G11  C0DC93746   2.662   2.421   5.790
  1368G11  C0DP93747   2.717   2.554   5.762
  1368G11  C0DA93748   2.815   2.592   5.656
  1368G11  C0D993749   2.851   2.519   5.530
  1368G11  C0CR93750   2.958   2.566   5.452
  1368G11  C0C093751   3.040   2.665   5.488
  1368G11  C0BZ93752   3.152   2.709   5.425
  1368G11  C0C193753   3.237   2.808   5.476
  1368G11  C0C793754   3.365   2.826   5.418
  1368G11  C0C693755   3.462   2.911   5.481
  1368G11  C0C993756   3.589   2.912   5.429
  1368G11  C0B893757   3.692   2.994   5.493
  1368G11  C0B793758   3.829   2.997   5.448
  1368G11  C0B693759   3.944   3.068   5.494
  1368G11  C0B593760   3.927   3.210   5.509
  1368G11  H00Z93761   3.841   3.267   5.539
  1368G11  C0B493762   4.054   3.268   5.468
  1368G11  H01093763   4.086   3.368   5.443
  1368G11  C0B393764   4.144   3.163   5.434
  1368G11  C0AP93765   4.229   3.127   5.317
  1368G11  C0AQ93766   4.186   3.000   5.271
  1368G11  C0AR93767   4.202   2.961   5.135
  1368G11  C0AS93768   4.128   2.859   5.104
  1368G11  C0AT93769   4.008   2.819   5.171
  1368G11  C0BA93770   3.980   2.867   5.298
  1368G11  C0AU93771   3.905   2.773   5.096
  1368G11  C0BE93772   3.780   2.773   5.150
  1368G11  C0BI93773   3.675   2.718   5.074
  1368G11  C0BJ93774   3.690   2.677   4.942
  1368G11  C0BK93775   3.589   2.624   4.860
  1368G11  C0BW93776   3.467   2.604   4.925
  1368G11  C0BV93777   3.447   2.649   5.057
  1368G11  C0BU93778   3.325   2.627   5.114
  1368G11  C0BX93779   3.301   2.680   5.240
  1368G11  C0BT93780   3.227   2.552   5.049
  1368G11  C0CD93781   3.113   2.517   5.122
  1368G11  C0CB93782   3.087   2.563   5.248
  1368G11  C0CE93783   3.016   2.433   5.060
  1368G11  C0CK93784   3.039   2.384   4.930
  1368G11  C0BS93785   3.147   2.427   4.856
  1368G11  C0CJ93786   3.174   2.374   4.727
  1368G11  C0BP93787   3.286   2.421   4.661
  1368G11  C0CI93788   3.302   2.390   4.523
  1368G11  C0CH93789   3.427   2.420   4.465
  1368G11  H01293790   3.449   2.382   4.366
  1368G11  C0BN93791   3.531   2.484   4.531
  1368G11  C0CG93792   3.656   2.506   4.473
  1368G11  C0CF93793   3.684   2.457   4.339
  1368G11  H01393794   3.616   2.396   4.282
  1368G11  O00G93795   3.805   2.489   4.285
  1368G11  C0AA93796   3.902   2.550   4.354
  1368G11  C0A993797   4.018   2.560   4.288
  1368G11  H00U93798   4.037   2.520   4.190
  1368G11  C0A893799   4.110   2.641   4.345
  1368G11  H00V93800   4.197   2.665   4.285
  1368G11  C0A793801   4.095   2.703   4.472
  1368G11  C0A693802   3.985   2.660   4.549
  1368G11  C0A593803   3.963   2.697   4.682
  1368G11  C0A493804   4.067   2.749   4.769
  1368G11  C0A393805   4.192   2.820   4.750
  1368G11  C0A293806   4.223   2.869   4.621
  1368G11  C0A193807   4.319   2.971   4.599
  1368G11  C0A093808   4.400   3.062   4.692
  1368G11  C09Z93809   4.500   3.128   4.626
  1368G11  C09Y93810   4.603   3.192   4.699
  1368G11  H00Y93811   4.696   3.226   4.655
  1368G11  C09X93812   4.587   3.220   4.842
  1368G11  C09W93813   4.681   3.297   4.907
  1368G11  H00R93814   4.771   3.317   4.850
  1368G11  C0AX93815   4.665   3.343   5.039
  1368G11  H00S93816   4.729   3.409   5.095
  1368G11  C0AW93817   4.548   3.291   5.106
  1368G11  H00T93818   4.532   3.314   5.210
  1368G11  C0AN93819   4.461   3.201   5.041
  1368G11  C0AO93820   4.346   3.154   5.108
  1368G11  C0AM93821   4.475   3.166   4.904
  1368G11  C0B293822   4.519   3.129   4.481
  1368G11  O00D93823   4.606   3.199   4.431
  1368G11  C0B193824   4.436   3.055   4.396
  1368G11  H00W93825   4.434   3.062   4.289
  1368G11  C0AL93826   4.391   3.071   4.836
  1368G11  C0AK93827   4.297   3.002   4.915
  1368G11  C0B093828   4.343   2.975   4.459
  1368G11  C0AZ93829   4.261   2.879   4.392
  1368G11  H00X93830   4.263   2.868   4.284
  1368G11  C0AJ93831   4.222   2.884   4.875
  1368G11  C0AH93832   4.048   2.742   4.909
  1368G11  C0AE93833   3.844   2.659   4.744
  1368G11  C0AD93834   3.737   2.606   4.674
  1368G11  C0AY93835   4.187   2.810   4.495
  1368G11  C0AB93836   3.881   2.588   4.487
  1368G11  C0AC93837   3.756   2.570   4.544
  1368G11  C0BM93838   3.511   2.520   4.664
  1368G11  C0CM93839   3.199   2.334   4.458
  1368G11  C09M93840   3.115   2.241   4.533
  1368G11  C09893841   3.088   2.114   4.478
  1368G11  C08R93842   2.998   2.007   4.520
  1368G11  C08Q93843   2.997   1.897   4.431
  1368G11  C08P93844   2.913   1.792   4.389
  1368G11  C08Y93845   2.927   1.744   4.256
  1368G11  C09793846   3.001   1.821   4.167
  1368G11  C09693847   2.938   1.825   4.045
  1368G11  C09093848   2.848   1.718   4.050
  1368G11  C09593849   2.764   1.667   3.945
  1368G11  C09493850   2.687   1.548   3.945
  1368G11  C08J93851   2.641   1.466   4.063
  1368G11  C08I93852   2.510   1.413   4.028
  1368G11  C08H93853   2.443   1.393   4.160
  1368G11  C08G93854   2.521   1.465   4.263
  1368G11  C08F93855   2.518   1.479   4.409
  1368G11  C08E93856   2.439   1.395   4.494
  1368G11  C05993857   2.377   1.275   4.455
  1368G11  C05893858   2.323   1.188   4.556
  1368G11  C05793859   2.250   1.075   4.532
  1368G11  C05693860   2.238   1.041   4.400
  1368G11  C05593861   2.313   1.094   4.303
  1368G11  C05493862   2.253   1.063   4.182
  1368G11  C05393863   2.132   0.979   4.207
  1368G11  C05293864   2.027   0.937   4.119
  1368G11  C05193865   2.024   0.983   3.980
  1368G11  C05U93866   2.107   1.086   3.914
  1368G11  C05T93867   2.213   1.173   3.956
  1368G11  C06K93868   2.266   1.239   3.844
  1368G11  H00J93869   2.362   1.289   3.846
  1368G11  C06L93870   2.195   1.206   3.729
  1368G11  H00I93871   2.214   1.236   3.628
  1368G11  C05V93872   2.095   1.114   3.775
  1368G11  C06J93873   1.995   1.049   3.700
  1368G11  H00K93874   1.981   1.078   3.596
  1368G11  C05X93875   1.911   0.953   3.754
  1368G11  C06I93876   1.810   0.892   3.675
  1368G11  H00L93877   1.811   0.907   3.568
  1368G11  C04Z93878   1.715   0.800   3.732
  1368G11  C06H93879   1.612   0.747   3.651
  1368G11  H00H93880   1.616   0.762   3.544
  1368G11  C04Y93881   1.507   0.674   3.712
  1368G11  C06G93882   1.399   0.623   3.630
  1368G11  O00993883   1.388   0.643   3.507
  1368G11  O00893884   1.294   0.555   3.695
  1368G11  C04P93885   1.292   0.539   3.830
  1368G11  C04J93886   1.184   0.472   3.899
  1368G11  C04Q93887   1.076   0.405   3.846
  1368G11  H00E93888   1.075   0.396   3.738
  1368G11  C04M93889   0.966   0.355   3.929
  1368G11  C04R93890   0.853   0.291   3.885
  1368G11  H00F93891   0.845   0.271   3.779
  1368G11  C04S93892   0.751   0.248   3.958
  1368G11  H00G93893   0.667   0.192   3.919
  1368G11  O00793894   0.756   0.272   4.096
  1368G11  C03V93895   0.866   0.333   4.149
  1368G11  C03U93896   0.881   0.344   4.288
  1368G11  O00693897   0.778   0.287   4.362
  1368G11  C03F93898   0.762   0.329   4.488
  1368G11  C03E93899   0.872   0.392   4.556
  1368G11  C03D93900   0.986   0.428   4.481
  1368G11  C03C93901   1.097   0.477   4.546
  1368G11  C03B93902   1.079   0.497   4.685
  1368G11  C03A93903   1.189   0.546   4.757
  1368G11  C03993904   1.314   0.575   4.701
  1368G11  C03893905   1.398   0.617   4.815
  1368G11  C03793906   1.312   0.610   4.924
  1368G11  C03693907   1.354   0.625   5.050
  1368G11  C02R93908   1.288   0.621   5.170
  1368G11  C03593909   1.381   0.676   5.258
  1368G11  C03R93910   1.504   0.701   5.200
  1368G11  C03S93911   1.589   0.803   5.244
  1368G11  C04993912   1.684   0.846   5.157
  1368G11  C04893913   1.678   0.795   5.024
  1368G11  C03P93914   1.567   0.720   4.968
  1368G11  C04793915   1.790   0.833   4.944
  1368G11  C04693916   1.818   0.796   4.814
  1368G11  C04593917   1.741   0.735   4.714
  1368G11  C03T93918   1.612   0.673   4.720
  1368G11  C04493919   1.578   0.629   4.590
  1368G11  C04393920   1.697   0.641   4.512
  1368G11  C04293921   1.663   0.651   4.372
  1368G11  C04193922   1.522   0.626   4.375
  1368G11  C04093923   1.440   0.618   4.262
  1368G11  C03Z93924   1.319   0.547   4.248
  1368G11  C04H93925   1.298   0.530   4.112
  1368G11  C04G93926   1.402   0.587   4.045
  1368G11  C03N93927   1.209   0.504   4.334
  1368G11  C03Y93928   1.095   0.447   4.270
  1368G11  C03X93929   1.085   0.430   4.129
  1368G11  C04F93930   1.496   0.639   4.130
  1368G11  C04E93931   1.615   0.690   4.070
  1368G11  C04O93932   1.616   0.713   3.929
  1368G11  C04D93933   1.730   0.728   4.141
  1368G11  C04V93934   1.825   0.803   4.070
  1368G11  C04W93935   1.824   0.834   3.935
  1368G11  C04C93936   1.756   0.721   4.276
  1368G11  C04L93937   1.892   0.782   4.287
  1368G11  C04U93938   1.954   0.802   4.413
  1368G11  C05Q93939   2.059   0.891   4.434
  1368G11  C05P93940   2.080   0.911   4.568
  1368G11  C04T93941   1.975   0.853   4.640
  1368G11  C04B93942   1.901   0.787   4.546
  1368G11  C03M93943   1.464   0.599   4.507
  1368G11  C04A93944   1.786   0.719   4.583
  1368G11  C05H93945   1.933   0.862   4.776
  1368G11  C05G93946   1.990   0.934   4.887
  1368G11  C05F93947   2.113   1.011   4.881
  1368G11  C05E93948   2.135   1.113   4.976
  1368G11  C05L93949   2.075   1.162   5.106
  1368G11  C05K93950   1.968   1.099   5.175
  1368G11  C05J93951   1.885   0.992   5.126
  1368G11  C06693952   1.937   1.153   5.301
  1368G11  C06593953   2.007   1.262   5.358
  1368G11  C06493954   2.107   1.326   5.277
  1368G11  C06N93955   1.975   1.323   5.482
  1368G11  C06993956   1.863   1.278   5.551
  1368G11  C06P93957   1.820   1.348   5.666
  1368G11  C06R93958   1.707   1.308   5.736
  1368G11  C06B93959   1.633   1.200   5.687
  1368G11  C06S93960   1.517   1.157   5.754
  1368G11  C02G93961   1.449   1.048   5.713
  1368G11  C02F93962   1.331   1.011   5.778
  1368G11  C02793963   1.283   1.084   5.890
  1368G11  C02693964   1.158   1.057   5.944
  1368G11  C00E93965   1.118   1.133   6.049
  1368G11  C00D93966   0.996   1.103   6.106
  1368G11  C00C93967   0.955   1.183   6.208
  1368G11  C00B93968   1.020   1.291   6.257
  1368G11  C01593969   1.143   1.316   6.204
  1368G11  C07F93970   1.213   1.426   6.256
  1368G11  C07E93971   1.338   1.457   6.199
  1368G11  C06W93972   1.387   1.379   6.091
  1368G11  C06V93973   1.317   1.270   6.042
  1368G11  C06X93974   1.501   1.415   6.026
  1368G11  C07B93975   1.576   1.526   6.072
  1368G11  C07C93976   1.533   1.592   6.188
  1368G11  C0FU93977   1.611   1.700   6.234
  1368G11  C0F793978   1.565   1.778   6.342
  1368G11  C0F693979   1.644   1.885   6.384
  1368G11  C0F893980   1.597   1.957   6.493
  1368G11  C0F993981   1.677   2.058   6.548
  1368G11  C0FA93982   1.638   2.119   6.665
  1368G11  C0FZ93983   1.515   2.093   6.722
  1368G11  C0G093984   1.468   2.158   6.833
  1368G11  C0GD93985   1.553   2.248   6.903
  1368G11  C0FC93986   1.682   2.270   6.852
  1368G11  C0GH93987   1.776   2.355   6.916
  1368G11  C0EY93988   1.894   2.394   6.859
  1368G11  C0EX93989   1.971   2.500   6.914
  1368G11  C0EW93990   2.083   2.549   6.844
  1368G11  C0FR93991   2.159   2.656   6.895
  1368G11  H01D93992   2.238   2.703   6.839
  1368G11  C0FS93993   2.116   2.721   7.012
  1368G11  H01C93994   2.172   2.811   7.033
  1368G11  C0GJ93995   2.013   2.669   7.083
  1368G11  H01N93996   1.991   2.722   7.174
  1368G11  C0EV93997   2.117   2.487   6.726
  1368G11  C0FT93998   2.241   2.522   6.656
  1368G11  H01E93999   2.305   2.603   6.688
  1368G11  C0EU94000   2.040   2.384   6.675
  1368G11  C0ET94001   2.066   2.329   6.549
  1368G11  C0EI94002   1.992   2.234   6.478
  1368G11  C0F194003   1.876   2.193   6.543
  1368G11  C0F094004   1.842   2.253   6.671
  1368G11  C0EH94005   2.031   2.184   6.352
  1368G11  C0EG94006   2.153   2.215   6.285
  1368G11  C0EJ94007   1.957   2.074   6.299
  1368G11  C0F394008   1.841   2.032   6.367
  1368G11  C0EK94009   2.002   2.000   6.184
  1368G11  C0EL94010   2.122   2.029   6.120
  1368G11  C0EM94011   2.155   1.934   6.009
  1368G11  C0EN94012   2.072   1.829   5.984
  1368G11  C07I94013   2.117   1.757   5.868
  1368G11  C07494014   2.046   1.644   5.823
  1368G11  C07394015   2.089   1.586   5.707
  1368G11  C07294016   2.015   1.483   5.657
  1368G11  C07594017   1.921   1.629   5.878
  1368G11  C07694018   1.878   1.702   5.989
  1368G11  C07894019   1.762   1.668   6.055
  1368G11  C07G94020   1.846   1.526   5.830
  1368G11  C07094021   1.733   1.487   5.897
  1368G11  C07Z94022   2.234   1.809   5.819
  1368G11  C07794023   1.953   1.803   6.048
  1368G11  C0EO94024   1.916   1.889   6.142
  1368G11  C0F494025   1.803   1.849   6.210
  1368G11  C0EQ94026   2.184   2.363   6.487
  1368G11  C0FQ94027   1.935   2.562   7.035
  1368G11  C0GI94028   1.823   2.510   7.094
  1368G11  H01L94029   1.787   2.555   7.185
  1368G11  C0EZ94030   1.920   2.344   6.734
  1368G11  C0GG94031   1.740   2.416   7.038
  1368G11  C0GF94032   1.612   2.383   7.091
  1368G11  H01M94033   1.590   2.423   7.189
  1368G11  C0GE94034   1.524   2.298   7.030
  1368G11  H01K94035   1.428   2.275   7.074
  1368G11  O00J94036   1.345   2.137   6.890
  1368G11  C0GA94037   1.261   2.048   6.831
  1368G11  C0G994038   1.129   2.040   6.873
  1368G11  H01H94039   1.102   2.094   6.963
  1368G11  C0G894040   1.039   1.940   6.823
  1368G11  C0G794041   0.900   1.924   6.869
  1368G11  H01I94042   0.867   1.990   6.948
  1368G11  O00I94043   0.827   1.821   6.822
  1368G11  C0G694044   0.876   1.754   6.715
  1368G11  H01J94045   0.797   1.698   6.666
  1368G11  C02D94046   1.009   1.761   6.660
  1368G11  C02C94047   1.054   1.671   6.560
  1368G11  C01794048   0.983   1.556   6.511
  1368G11  C01694049   1.037   1.472   6.407
  1368G11  O00194050   0.858   1.528   6.557
  1368G11  C01894051   0.779   1.441   6.495
  1368G11  C00994052   0.825   1.354   6.401
  1368G11  C00894053   0.754   1.251   6.335
  1368G11  C00794054   0.616   1.213   6.323
  1368G11  C00694055   0.511   1.277   6.390
  1368G11  C00594056   0.379   1.227   6.390
  1368G11  C00494057   0.317   1.135   6.301
  1368G11  C00394058   0.366   1.047   6.191
  1368G11  C00294059   0.271   0.987   6.098
  1368G11  C00P94060   0.320   0.905   5.990
  1368G11  C00O94061   0.226   0.844   5.903
  1368G11  C00N94062   0.273   0.766   5.799
  1368G11  C01094063   0.177   0.721   5.709
  1368G11  C01194064   0.219   0.676   5.585
  1368G11  C01Q94065   0.125   0.645   5.488
  1368G11  C01U94066  -0.012   0.638   5.512
  1368G11  C01294067  -0.052   0.695   5.642
  1368G11  H00094068  -0.156   0.706   5.668
  1368G11  C01V94069  -0.097   0.588   5.413
  1368G11  H00794070  -0.199   0.564   5.442
  1368G11  O00594071  -0.055   0.556   5.285
  1368G11  C01W94072   0.074   0.586   5.262
  1368G11  C03194073   0.112   0.609   5.129
  1368G11  C03294074   0.236   0.661   5.099
  1368G11  H00A94075   0.270   0.673   4.997
  1368G11  C03394076   0.332   0.658   5.198
  1368G11  H00B94077   0.431   0.689   5.170
  1368G11  C01O94078   0.306   0.620   5.330
  1368G11  C01N94079   0.401   0.616   5.427
  1368G11  C01M94080   0.544   0.591   5.408
  1368G11  C01L94081   0.652   0.560   5.305
  1368G11  C01K94082   0.773   0.587   5.366
  1368G11  C01Y94083   0.906   0.598   5.310
  1368G11  C02I94084   0.914   0.575   5.172
  1368G11  C02N94085   1.040   0.583   5.113
  1368G11  C02M94086   1.056   0.557   4.972
  1368G11  C02L94087   0.946   0.505   4.897
  1368G11  C02K94088   0.819   0.495   4.957
  1368G11  C02U94089   0.709   0.458   4.881
  1368G11  C02V94090   0.730   0.406   4.748
  1368G11  C03H94091   0.622   0.341   4.678
  1368G11  H00C94092   0.528   0.304   4.717
  1368G11  C02W94093   0.583   0.452   4.934
  1368G11  C02X94094   0.571   0.477   5.068
  1368G11  C02Y94095   0.443   0.429   5.097
  1368G11  H00894096   0.395   0.415   5.193
  1368G11  C02Z94097   0.367   0.424   4.964
  1368G11  O00494098   0.250   0.419   4.932
  1368G11  O00394099   0.460   0.427   4.876
  1368G11  C02J94100   0.799   0.533   5.098
  1368G11  C01Z94101   1.006   0.637   5.394
  1368G11  C02094102   0.977   0.675   5.524
  1368G11  C01I94103   0.855   0.652   5.582
  1368G11  C01H94104   0.809   0.711   5.698
  1368G11  C00K94105   0.673   0.716   5.735
  1368G11  C01S94106   0.575   0.667   5.648
  1368G11  C01494107   0.445   0.684   5.662
  1368G11  C00J94108   0.633   0.783   5.846
  1368G11  C00I94109   0.725   0.851   5.921
  1368G11  C00H94110   0.863   0.851   5.882
  1368G11  C00G94111   0.951   0.928   5.954
  1368G11  C00S94112   0.680   0.922   6.031
  1368G11  C00T94113   0.780   0.994   6.091
  1368G11  C00U94114   0.734   1.082   6.191
  1368G11  C00R94115   0.544   0.943   6.055
  1368G11  C00L94116   0.495   0.801   5.864
  1368G11  C02894117   0.905   0.788   5.767
  1368G11  C02394118   1.033   0.804   5.719
  1368G11  C02494119   1.123   0.884   5.785
  1368G11  C02194120   1.065   0.750   5.596
  1368G11  C02294121   1.194   0.771   5.544
  1368G11  C02H94122   1.286   0.849   5.611
  1368G11  C03094123   1.406   0.886   5.549
  1368G11  C03494124   1.437   0.822   5.432
  1368G11  C02P94125   1.221   0.722   5.418
  1368G11  C02B94126   1.128   0.655   5.337
  1368G11  C01J94127   0.752   0.605   5.502
  1368G11  C01X94128   0.663   0.524   5.164
  1368G11  C01T94129   0.619   0.617   5.524
  1368G11  H00994130   0.047   0.604   5.042
  1368G11  C01P94131   0.169   0.612   5.366
  1368G11  C01R94132   0.358   0.654   5.559
  1368G11  C00Z94133   0.041   0.730   5.738
  1368G11  O00094134  -0.003   0.797   5.846
  1368G11  C00M94135   0.403   0.746   5.774
  1368G11  C00Y94136   0.090   0.854   5.929
  1368G11  C01394137   0.049   0.930   6.034
  1368G11  H00194138  -0.056   0.951   6.041
  1368G11  C00Q94139   0.449   0.882   5.974
  1368G11  C00194140   0.135   0.995   6.121
  1368G11  C00094141   0.087   1.065   6.231
  1368G11  H00694142  -0.016   1.051   6.259
  1368G11  C00W94143   0.500   1.034   6.157
  1368G11  C01G94144   0.176   1.132   6.320
  1368G11  H00594145   0.124   1.158   6.411
  1368G11  C01C94146   0.314   1.291   6.501
  1368G11  H00294147   0.216   1.272   6.543
  1368G11  C01B94148   0.410   1.368   6.566
  1368G11  C01D94149   0.394   1.452   6.683
  1368G11  H00394150   0.298   1.450   6.732
  1368G11  C01E94151   0.503   1.521   6.714
  1368G11  H00494152   0.499   1.573   6.809
  1368G11  O00294153   0.622   1.521   6.647
  1368G11  C01A94154   0.532   1.370   6.494
  1368G11  C00V94155   0.601   1.113   6.225
  1368G11  C01994156   0.645   1.444   6.539
  1368G11  C02E94157   1.184   1.692   6.508
  1368G11  C0FX94158   1.264   1.794   6.564
  1368G11  C0FW94159   1.394   1.817   6.505
  1368G11  C0GB94160   1.215   1.880   6.664
  1368G11  C0G394161   1.238   1.610   6.410
  1368G11  C07H94162   1.360   1.639   6.350
  1368G11  C0GC94163   1.087   1.861   6.716
  1368G11  C0G294164   1.307   1.968   6.723
  1368G11  C0G194165   1.430   1.995   6.664
  1368G11  C0FB94166   1.721   2.214   6.728
  1368G11  C0F294167   1.796   2.098   6.480
  1368G11  C0FY94168   1.476   1.919   6.556
  1368G11  C0F594169   1.761   1.920   6.317
  1368G11  C0FV94170   1.436   1.745   6.397
  1368G11  C07994171   1.725   1.738   6.170
  1368G11  C07A94172   1.687   1.561   6.007
  1368G11  C06Y94173   1.546   1.345   5.914
  1368G11  C07D94174   1.413   1.564   6.247
  1368G11  C01F94175   1.161   1.501   6.359
  1368G11  C00A94176   0.954   1.373   6.354
  1368G11  C00X94177   0.821   1.174   6.248
  1368G11  C00F94178   0.912   1.002   6.059
  1368G11  C02994179   1.196   1.241   6.101
  1368G11  C02594180   1.083   0.954   5.899
  1368G11  C06U94181   1.358   1.194   5.932
  1368G11  C02A94182   1.249   0.906   5.732
  1368G11  C05Y94183   1.491   0.981   5.603
  1368G11  C05Z94184   1.605   1.022   5.532
  1368G11  C06094185   1.638   0.963   5.411
  1368G11  C06294186   1.746   1.007   5.330
  1368G11  C06T94187   1.477   1.231   5.868
  1368G11  C06A94188   1.672   1.135   5.567
  1368G11  C06Z94189   1.664   1.376   5.850
  1368G11  C06Q94190   1.895   1.450   5.720
  1368G11  C06894191   1.783   1.178   5.494
  1368G11  C06794192   1.827   1.113   5.379
  1368G11  C06394193   2.135   1.281   5.149
  1368G11  C06C94194   2.229   1.353   5.073
  1368G11  C06D94195   2.277   1.318   4.950
  1368G11  C06E94196   2.351   1.396   4.860
  1368G11  C07Q94197   2.393   1.518   4.899
  1368G11  C07P94198   2.364   1.553   5.033
  1368G11  C07T94199   2.414   1.676   5.072
  1368G11  C07U94200   2.399   1.712   5.206
  1368G11  C07V94201   2.456   1.826   5.254
  1368G11  C08494202   2.524   1.908   5.166
  1368G11  C08C94203   2.546   1.867   5.035
  1368G11  C08B94204   2.612   1.947   4.946
  1368G11  C08A94205   2.635   1.909   4.820
  1368G11  C08994206   2.590   1.794   4.767
  1368G11  C08894207   2.636   1.746   4.640
  1368G11  C08794208   2.574   1.631   4.591
  1368G11  C08694209   2.493   1.556   4.676
  1368G11  C08X94210   2.735   1.808   4.570
  1368G11  C08T94211   2.781   1.934   4.622
  1368G11  C08D94212   2.511   1.717   4.853
  1368G11  C08U94213   2.729   1.974   4.742
  1368G11  C08V94214   2.781   2.096   4.781
  1368G11  C0CY94215   2.764   2.145   4.913
  1368G11  C0CX94216   2.853   2.238   4.959
  1368G11  C0CW94217   2.839   2.279   5.088
  1368G11  C0CV94218   2.745   2.215   5.169
  1368G11  C0D494219   2.667   2.107   5.122
  1368G11  C0CU94220   2.738   2.250   5.298
  1368G11  C0CT94221   2.808   2.358   5.349
  1368G11  C0CS94222   2.905   2.409   5.270
  1368G11  C0D694223   2.659   2.170   5.377
  1368G11  C0EC94224   2.588   2.056   5.341
  1368G11  C07X94225   2.521   1.976   5.431
  1368G11  C0DL94226   2.663   2.202   5.513
  1368G11  C0DK94227   2.595   2.125   5.603
  1368G11  C0DN94228   2.599   2.190   5.722
  1368G11  C0D894229   2.720   2.314   5.572
  1368G11  C08W94230   2.890   2.132   4.701
  1368G11  C0CQ94231   2.980   2.236   4.750
  1368G11  C09394232   2.679   2.066   4.993
  1368G11  C09294233   2.585   2.028   5.210
  1368G11  C08594234   2.489   1.754   4.987
  1368G11  C07S94235   2.465   1.596   4.807
  1368G11  C06F94236   2.366   1.359   4.722
  1368G11  C07O94237   2.286   1.472   5.117
  1368G11  C07N94238   2.259   1.512   5.245
  1368G11  C05D94239   2.233   1.192   4.909
  1368G11  C05C94240   2.255   1.159   4.778
  1368G11  C05N94241   2.181   1.048   4.757
  1368G11  C05M94242   1.892   0.925   4.994
  1368G11  C05I94243   1.770   0.947   5.201
  1368G11  C06194244   1.555   0.860   5.366
  1368G11  C02Q94245   1.346   0.737   5.372
  1368G11  C02O94246   1.148   0.617   5.203
  1368G11  C03Q94247   1.475   0.684   5.069
  1368G11  C03O94248   1.534   0.671   4.830
  1368G11  C03L94249   1.330   0.563   4.557
  1368G11  C02S94250   1.180   0.574   4.894
  1368G11  C02T94251   0.963   0.476   4.759
  1368G11  C03K94252   1.216   0.515   4.472
  1368G11  C03I94253   0.854   0.428   4.689
  1368G11  C03G94254   0.639   0.298   4.548
  1368G11  H00D94255   0.567   0.239   4.494
  1368G11  C03J94256   0.990   0.400   4.350
  1368G11  C03W94257   0.973   0.375   4.068
  1368G11  C04I94258   1.182   0.478   4.044
  1368G11  C04K94259   1.400   0.593   3.905
  1368G11  C04N94260   1.506   0.664   3.851
  1368G11  C04X94261   1.722   0.774   3.864
  1368G11  C05094262   1.923   0.916   3.889
  1368G11  C05W94263   1.932   0.843   4.159
  1368G11  C05S94264   2.276   1.179   4.093
  1368G11  C05R94265   2.140   0.959   4.344
  1368G11  C05O94266   2.170   1.006   4.625
  1368G11  C05B94267   2.315   1.238   4.683
  1368G11  C05A94268   2.355   1.226   4.320
  1368G11  C07R94269   2.435   1.435   4.630
  1368G11  C08N94270   2.600   1.588   4.459
  1368G11  C08M94271   2.700   1.657   4.384
  1368G11  C08L94272   2.715   1.624   4.249
  1368G11  C09194273   2.352   1.278   4.183
  1368G11  C09K94274   2.465   1.494   3.917
  1368G11  H00M94275   2.364   1.499   3.881
  1368G11  C08K94276   2.634   1.522   4.192
  1368G11  C09J94277   2.576   1.569   3.857
  1368G11  C09I94278   2.597   1.688   3.785
  1368G11  C09L94279   2.516   1.761   3.693
  1368G11  H00N94280   2.421   1.722   3.661
  1368G11  C09Q94281   2.580   1.865   3.634
  1368G11  H00O94282   2.528   1.924   3.560
  1368G11  O00B94283   2.706   1.916   3.676
  1368G11  C09G94284   2.769   1.872   3.787
  1368G11  C09F94285   2.884   1.949   3.830
  1368G11  O00A94286   2.910   2.056   3.742
  1368G11  C09P94287   3.018   2.126   3.777
  1368G11  H00P94288   3.091   2.146   3.701
  1368G11  C09O94289   3.056   2.153   3.916
  1368G11  C09D94290   3.037   2.039   4.003
  1368G11  C09C94291   3.093   2.029   4.140
  1368G11  C09N94292   3.153   2.123   4.228
  1368G11  C09T94293   3.144   2.265   4.212
  1368G11  C09S94294   3.147   2.329   4.084
  1368G11  C0CP94295   3.187   2.454   4.115
  1368G11  C0CN94296   3.211   2.483   4.248
  1368G11  C0CO94297   3.244   2.614   4.288
  1368G11  H01494298   3.248   2.650   4.390
  1368G11  C0CZ94299   3.245   2.707   4.183
  1368G11  H01594300   3.265   2.809   4.211
  1368G11  C0D094301   3.250   2.675   4.042
  1368G11  C0G594302   3.271   2.764   3.930
  1368G11  H01F94303   3.287   2.870   3.934
  1368G11  C0G494304   3.252   2.719   3.808
  1368G11  H01G94305   3.266   2.791   3.728
  1368G11  O00H94306   3.214   2.596   3.773
  1368G11  C0D294307   3.194   2.509   3.874
  1368G11  C09V94308   3.149   2.372   3.848
  1368G11  H00Q94309   3.136   2.361   3.741
  1368G11  C0D194310   3.207   2.543   4.007
  1368G11  C09R94311   3.114   2.280   3.951
  1368G11  C09H94312   2.721   1.746   3.835
  1368G11  C09E94313   2.953   1.930   3.950
  1368G11  C09B94314   3.079   1.917   4.214
  1368G11  C08Z94315   2.820   1.690   4.188
  1368G11  C08O94316   2.788   1.754   4.450
  1368G11  C09A94317   3.108   1.929   4.350
  1368G11  C08S94318   2.887   2.033   4.599
  1368G11  C09994319   3.154   2.060   4.364
  1368G11  C09U94320   3.178   2.359   4.315
  1368G11  C0BO94321   3.392   2.491   4.730
  1368G11  C0CL94322   3.085   2.280   4.669
  1368G11  C0D394323   2.950   2.289   4.876
  1368G11  C0D594324   2.922   2.370   5.137
  1368G11  C0BR94325   3.247   2.510   4.920
  1368G11  C0BQ94326   3.369   2.532   4.860
  1368G11  C0BL94327   3.610   2.590   4.730
  1368G11  C0AF94328   3.819   2.686   4.884
  1368G11  C0BH94329   3.546   2.716   5.127
  1368G11  C0BG94330   3.524   2.771   5.251
  1368G11  C0BD94331   3.751   2.839   5.269
  1368G11  C0AG94332   3.923   2.729   4.969
  1368G11  C0AI94333   4.135   2.830   4.968
  1368G11  C0AV94334   4.283   3.037   5.052
  1368G11  C0BB94335   4.083   2.948   5.352
  1368G11  O00C94336   4.314   3.203   5.236
  1368G11  C0BC94337   4.074   3.039   5.459
  1368G11  C0B994338   3.852   2.898   5.342
  1368G11  O00E94339   3.649   3.080   5.592
  1368G11  C0CA94340   3.523   3.081   5.641
  1368G11  O00F94341   3.499   3.161   5.731
  1368G11  C0BF94342   3.620   2.845   5.315
  1368G11  C0C594343   3.425   2.996   5.586
  1368G11  C0C494344   3.293   2.982   5.642
  1368G11  H01194345   3.260   3.046   5.722
  1368G11  C0C894346   3.398   2.758   5.305
  1368G11  C0C294347   3.201   2.883   5.590
  1368G11  C0C394348   3.071   2.854   5.637
  1368G11  C0DY94349   2.999   2.918   5.739
  1368G11  H01694350   3.019   3.004   5.800
  1368G11  C0DX94351   2.881   2.829   5.755
  1368G11  C0DW94352   2.755   2.863   5.816
  1368G11  C0BY94353   3.178   2.656   5.302
  1368G11  C0DB94354   3.002   2.736   5.603
  1368G11  C0CC94355   2.984   2.511   5.322
  1368G11  C0D794356   2.789   2.406   5.480
  1368G11  C0DZ94357   2.885   2.713   5.670
  1368G11  C0DM94358   2.680   2.308   5.707
  1368G11  C0DQ94359   2.655   2.630   5.856
  1368G11  C0DV94360   2.668   2.766   5.875
  1368G11  C0E094361   2.710   2.995   5.875
  1368G11  C0FO94362   2.636   3.011   6.221
  1368G11  C0E394363   2.797   3.095   5.937
  1368G11  H01794364   2.902   3.110   5.917
  1368G11  C0GV94365   2.732   3.086   6.282
  1368G11  C0ES94366   2.602   2.882   6.272
  1368G11  C0GQ94367   2.810   2.910   6.583
  1368G11  C0FJ94368   2.631   2.599   6.678
  1368G11  C0ED94369   2.541   2.635   6.414
  1368G11  C0ER94370   2.270   2.449   6.542
  1368G11  C0EP94371   2.222   2.321   6.359
  1368G11  C0E694372   2.466   2.550   6.182
  1368G11  C0DE94373   2.494   2.309   5.984
  1368G11  C0EA94374   2.200   2.143   6.169
  1368G11  C0DF94375   2.509   2.171   5.952
  1368G11  C08094376   2.257   1.919   5.911
  1368G11  C0DO94377   2.525   2.130   5.820
  1368G11  C0DJ94378   2.521   2.009   5.566
  1368G11  C07K94379   2.272   1.760   5.687
  1368G11  C07W94380   2.452   1.863   5.388
  1368G11  C08394381   2.325   1.629   5.294
  1368G11  C07J94382   2.200   1.641   5.638
  1368G11  C06O94383   2.054   1.426   5.535
  1368G11  C06M94384   2.177   1.440   5.330
  1378G11  C07194385   3.282   6.172   7.191
  1378G11  C07L94386   3.322   6.255   7.085
  1378G11  C07M94387   3.304   6.390   7.095
  1378G11  C07Y94388   3.345   6.473   6.988
  1378G11  C08194389   3.421   6.418   6.882
  1378G11  C08294390   3.456   6.513   6.777
  1378G11  C0DI94391   3.529   6.491   6.648
  1378G11  C0DH94392   3.577   6.369   6.579
  1378G11  C0DG94393   3.634   6.401   6.453
  1378G11  C0E994394   3.627   6.328   6.327
  1378G11  C0E894395   3.618   6.438   6.230
  1378G11  C0E794396   3.664   6.439   6.085
  1378G11  C0EB94397   3.739   6.324   6.034
  1378G11  C0EF94398   3.831   6.323   5.922
  1378G11  C0EE94399   3.901   6.434   5.869
  1378G11  C0FD94400   4.042   6.425   5.850
  1378G11  C0FE94401   4.125   6.332   5.906
  1378G11  H01B94402   4.086   6.258   5.974
  1378G11  C0FF94403   4.262   6.325   5.889
  1378G11  H01A94404   4.324   6.261   5.951
  1378G11  C0FG94405   4.315   6.427   5.806
  1378G11  H01894406   4.423   6.424   5.797
  1378G11  C0FH94407   4.241   6.530   5.744
  1378G11  C0FI94408   4.292   6.629   5.656
  1378G11  H01994409   4.398   6.623   5.634
  1378G11  O00K94410   4.216   6.729   5.603
  1378G11  C0FL94411   4.080   6.716   5.621
  1378G11  C0FK94412   4.018   6.622   5.707
  1378G11  C0FM94413   3.877   6.628   5.723
  1378G11  C0FN94414   3.796   6.722   5.652
  1378G11  C0FP94415   3.865   6.815   5.573
  1378G11  C0GO94416   3.800   6.920   5.516
  1378G11  C0GN94417   3.857   7.029   5.449
  1378G11  C0GR94418   3.998   7.026   5.434
  1378G11  C0GS94419   4.061   7.130   5.369
  1378G11  H01Q94420   4.164   7.121   5.339
  1378G11  C0GT94421   3.992   7.239   5.313
  1378G11  H01O94422   4.048   7.316   5.261
  1378G11  C0GU94423   3.853   7.247   5.340
  1378G11  H01P94424   3.807   7.331   5.290
  1378G11  O00L94425   4.071   6.919   5.492
  1378G11  C0GM94426   3.784   7.141   5.409
  1378G11  C0GL94427   3.643   7.140   5.439
  1378G11  H01R94428   3.586   7.230   5.420
  1378G11  C0GK94429   3.582   7.036   5.505
  1378G11  C0GP94430   3.462   7.008   5.575
  1378G11  C0E294431   3.454   6.868   5.615
  1378G11  C0E194432   3.380   6.859   5.737
  1378G11  C0DU94433   3.428   6.808   5.859
  1378G11  C0DT94434   3.510   6.701   5.876
  1378G11  C0E494435   3.618   6.665   5.797
  1378G11  C0E594436   3.694   6.568   5.862
  1378G11  C0DS94437   3.533   6.652   6.003
  1378G11  C0DR94438   3.482   6.722   6.114
  1378G11  C0DD94439   3.513   6.698   6.250
  1378G11  C0DC94440   3.456   6.811   6.325
  1378G11  C0DP94441   3.384   6.906   6.234
  1378G11  C0DA94442   3.321   7.038   6.266
  1378G11  C0D994443   3.292   7.104   6.395
  1378G11  C0CR94444   3.236   7.239   6.401
  1378G11  C0C094445   3.218   7.316   6.286
  1378G11  C0BZ94446   3.168   7.450   6.285
  1378G11  C0C194447   3.147   7.521   6.161
  1378G11  C0C794448   3.106   7.651   6.159
  1378G11  C0C694449   3.097   7.726   6.044
  1378G11  C0C994450   3.062   7.860   6.047
  1378G11  C0B894451   3.047   7.930   5.925
  1378G11  C0B794452   3.006   8.067   5.929
  1378G11  C0B694453   2.965   8.165   5.818
  1378G11  C0B594454   2.907   8.133   5.692
  1378G11  H00Z94455   2.905   8.034   5.648
  1378G11  C0B494456   2.832   8.249   5.644
  1378G11  H01094457   2.761   8.249   5.562
  1378G11  C0B394458   2.841   8.347   5.749
  1378G11  C0AP94459   2.769   8.451   5.823
  1378G11  C0AQ94460   2.819   8.433   5.952
  1378G11  C0AR94461   2.748   8.471   6.069
  1378G11  C0AS94462   2.794   8.414   6.181
  1378G11  C0AT94463   2.879   8.303   6.187
  1378G11  C0BA94464   2.937   8.254   6.074
  1378G11  C0AU94465   2.887   8.224   6.300
  1378G11  C0BE94466   2.948   8.098   6.297
  1378G11  C0BI94467   2.940   8.022   6.412
  1378G11  C0BJ94468   2.880   8.070   6.531
  1378G11  C0BK94469   2.879   7.997   6.644
  1378G11  C0BW94470   2.935   7.874   6.646
  1378G11  C0BV94471   2.986   7.821   6.529
  1378G11  C0BU94472   3.029   7.693   6.529
  1378G11  C0BX94473   3.072   7.633   6.407
  1378G11  C0BT94474   3.033   7.618   6.643
  1378G11  C0CD94475   3.089   7.487   6.643
  1378G11  C0CB94476   3.140   7.431   6.524
  1378G11  C0CE94477   3.077   7.410   6.758
  1378G11  C0CK94478   3.023   7.464   6.876
  1378G11  C0BS94479   2.976   7.595   6.879
  1378G11  C0CJ94480   2.921   7.648   7.001
  1378G11  C0BP94481   2.872   7.779   6.999
  1378G11  C0CI94482   2.830   7.843   7.117
  1378G11  C0CH94483   2.811   7.982   7.111
  1378G11  H01294484   2.815   8.040   7.202
  1378G11  C0BN94485   2.796   8.051   6.995
  1378G11  C0CG94486   2.735   8.177   6.993
  1378G11  C0CF94487   2.687   8.243   7.111
  1378G11  H01394488   2.694   8.209   7.213
  1378G11  O00G94489   2.621   8.360   7.108
  1378G11  C0AA94490   2.590   8.414   6.985
  1378G11  C0A994491   2.514   8.540   6.989
  1378G11  H00U94492   2.491   8.591   7.082
  1378G11  C0A894493   2.480   8.597   6.864
  1378G11  H00V94494   2.434   8.695   6.869
  1378G11  C0A794495   2.511   8.539   6.733
  1378G11  C0A694496   2.592   8.416   6.737
  1378G11  C0A594497   2.660   8.356   6.628
  1378G11  C0A494498   2.650   8.421   6.500
  1378G11  C0A394499   2.565   8.518   6.429
  1378G11  C0A294500   2.469   8.597   6.485
  1378G11  C0A194501   2.395   8.694   6.411
  1378G11  C0A094502   2.383   8.736   6.270
  1378G11  C09Z94503   2.290   8.840   6.246
  1378G11  C09Y94504   2.263   8.888   6.112
  1378G11  H00Y94505   2.193   8.968   6.096
  1378G11  C09X94506   2.325   8.823   6.005
  1378G11  C09W94507   2.278   8.857   5.877
  1378G11  H00R94508   2.198   8.930   5.875
  1378G11  C0AX94509   2.335   8.807   5.765
  1378G11  H00S94510   2.311   8.833   5.663
  1378G11  C0AW94511   2.434   8.710   5.780
  1378G11  H00T94512   2.486   8.680   5.690
  1378G11  C0AN94513   2.487   8.669   5.908
  1378G11  C0AO94514   2.596   8.578   5.924
  1378G11  C0AM94515   2.424   8.721   6.024
  1378G11  C0B294516   2.219   8.911   6.349
  1378G11  O00D94517   2.135   8.998   6.329
  1378G11  C0B194518   2.228   8.868   6.480
  1378G11  H00W94519   2.168   8.926   6.548
  1378G11  C0AL94520   2.456   8.680   6.159
  1378G11  C0AK94521   2.556   8.588   6.169
  1378G11  C0B094522   2.320   8.765   6.506
  1378G11  C0AZ94523   2.343   8.712   6.635
  1378G11  H00X94524   2.297   8.743   6.728
  1378G11  C0AJ94525   2.600   8.523   6.291
  1378G11  C0AH94526   2.739   8.377   6.406
  1378G11  C0AE94527   2.743   8.245   6.641
  1378G11  C0AD94528   2.760   8.179   6.757
  1378G11  C0AY94529   2.455   8.616   6.626
  1378G11  C0AB94530   2.625   8.351   6.860
  1378G11  C0AC94531   2.708   8.237   6.868
  1378G11  C0BM94532   2.833   7.987   6.880
  1378G11  C0CM94533   2.815   7.770   7.241
  1378G11  C09M94534   2.876   7.642   7.246
  1378G11  C09894535   2.902   7.589   7.379
  1378G11  C08R94536   2.918   7.451   7.423
  1378G11  C08Q94537   2.948   7.438   7.563
  1378G11  C08P94538   2.918   7.342   7.667
  1378G11  C08Y94539   2.898   7.392   7.796
  1378G11  C09794540   2.878   7.526   7.820
  1378G11  C09694541   2.773   7.550   7.908
  1378G11  C09094542   2.732   7.427   7.961
  1378G11  C09594543   2.610   7.405   8.034
  1378G11  C09494544   2.572   7.277   8.093
  1378G11  C08J94545   2.592   7.146   8.042
  1378G11  C08I94546   2.600   7.058   8.154
  1378G11  C08H94547   2.674   6.935   8.108
  1378G11  C08G94548   2.736   6.973   7.977
  1378G11  C08F94549   2.828   6.909   7.876
  1378G11  C08E94550   2.879   6.780   7.882
  1378G11  C05994551   2.873   6.696   7.998
  1378G11  C05894552   2.925   6.563   7.996
  1378G11  C05794553   2.906   6.458   8.091
  1378G11  C05694554   2.826   6.499   8.202
  1378G11  C05594555   2.795   6.628   8.230
  1378G11  C05494556   2.689   6.630   8.321
  1378G11  C05394557   2.646   6.493   8.335
  1378G11  C05294558   2.524   6.444   8.397
  1378G11  C05194559   2.422   6.527   8.454
  1378G11  C05U94560   2.420   6.671   8.447
  1378G11  C05T94561   2.493   6.772   8.371
  1378G11  C06K94562   2.468   6.889   8.454
  1378G11  H00J94563   2.518   6.982   8.431
  1378G11  C06L94564   2.378   6.872   8.563
  1378G11  H00I94565   2.341   6.946   8.631
  1378G11  C05V94566   2.342   6.734   8.548
  1378G11  C06J94567   2.253   6.670   8.634
  1378G11  H00K94568   2.200   6.714   8.717
  1378G11  C05X94569   2.229   6.535   8.607
  1378G11  C06I94570   2.122   6.466   8.666
  1378G11  H00L94571   2.062   6.529   8.731
  1378G11  C04Z94572   2.087   6.329   8.646
  1378G11  C06H94573   1.965   6.275   8.694
  1378G11  H00H94574   1.899   6.330   8.760
  1378G11  C04Y94575   1.948   6.129   8.667
  1378G11  C06G94576   1.835   6.067   8.730
  1378G11  O00994577   1.761   6.126   8.805
  1378G11  O00894578   1.813   5.932   8.704
  1378G11  C04P94579   1.892   5.858   8.623
  1378G11  C04J94580   1.868   5.717   8.589
  1378G11  C04Q94581   1.761   5.631   8.619
  1378G11  H00E94582   1.677   5.665   8.678
  1378G11  C04M94583   1.758   5.493   8.580
  1378G11  C04R94584   1.653   5.405   8.594
  1378G11  H00F94585   1.573   5.448   8.653
  1378G11  C04S94586   1.667   5.278   8.565
  1378G11  H00G94587   1.578   5.222   8.591
  1378G11  O00794588   1.779   5.218   8.522
  1378G11  C03V94589   1.875   5.303   8.481
  1378G11  C03U94590   1.988   5.239   8.428
  1378G11  O00694591   1.982   5.108   8.414
  1378G11  C03F94592   2.080   5.041   8.345
  1378G11  C03E94593   2.199   5.109   8.305
  1378G11  C03D94594   2.208   5.250   8.326
  1378G11  C03C94595   2.315   5.324   8.285
  1378G11  C03B94596   2.410   5.249   8.214
  1378G11  C03A94597   2.522   5.311   8.168
  1378G11  C03994598   2.539   5.449   8.196
  1378G11  C03894599   2.660   5.479   8.123
  1378G11  C03794600   2.706   5.358   8.064
  1378G11  C03694601   2.810   5.352   7.988
  1378G11  C02R94602   2.861   5.250   7.916
  1378G11  C03594603   2.967   5.311   7.847
  1378G11  C03R94604   2.980   5.445   7.877
  1378G11  C03S94605   3.029   5.535   7.779
  1378G11  C04994606   2.997   5.665   7.801
  1378G11  C04894607   2.906   5.690   7.910
  1378G11  C03P94608   2.831   5.595   7.985
  1378G11  C04794609   2.909   5.829   7.936
  1378G11  C04694610   2.850   5.893   8.043
  1378G11  C04594611   2.760   5.844   8.140
  1378G11  C03T94612   2.705   5.722   8.158
  1378G11  C04494613   2.602   5.737   8.250
  1378G11  C04394614   2.624   5.861   8.317
  1378G11  C04294615   2.495   5.911   8.354
  1378G11  C04194616   2.407   5.787   8.340
  1378G11  C04094617   2.279   5.778   8.396
  1378G11  C03Z94618   2.193   5.663   8.410
  1378G11  C04H94619   2.090   5.713   8.489
  1378G11  C04G94620   2.104   5.851   8.511
  1378G11  C03N94621   2.204   5.525   8.373
  1378G11  C03Y94622   2.095   5.454   8.418
  1378G11  C03X94623   1.976   5.513   8.474
  1378G11  C04F94624   2.216   5.894   8.452
  1378G11  C04E94625   2.244   6.036   8.468
  1378G11  C04O94626   2.149   6.118   8.540
  1378G11  C04D94627   2.355   6.112   8.422
  1378G11  C04V94628   2.373   6.250   8.445
  1378G11  C04W94629   2.284   6.329   8.513
  1378G11  C04C94630   2.468   6.061   8.355
  1378G11  C04L94631   2.558   6.180   8.344
  1378G11  C04U94632   2.689   6.175   8.302
  1378G11  C05Q94633   2.764   6.282   8.252
  1378G11  C05P94634   2.853   6.243   8.154
  1378G11  C04T94635   2.843   6.106   8.138
  1378G11  C04B94636   2.742   6.067   8.228
  1378G11  C03M94637   2.480   5.669   8.294
  1378G11  C04A94638   2.707   5.930   8.234
  1378G11  C05H94639   2.899   6.024   8.039
  1378G11  C05G94640   2.980   6.043   7.921
  1378G11  C05F94641   3.046   6.160   7.890
  1378G11  C05E94642   3.084   6.192   7.757
  1378G11  C05L94643   3.107   6.121   7.636
  1378G11  C05K94644   3.107   5.981   7.629
  1378G11  C05J94645   3.048   5.889   7.726
  1378G11  C06694646   3.171   5.927   7.515
  1378G11  C06594647   3.212   6.009   7.409
  1378G11  C06494648   3.195   6.145   7.417
  1378G11  C06N94649   3.265   5.954   7.293
  1378G11  C06994650   3.278   5.812   7.282
  1378G11  C06P94651   3.332   5.749   7.166
  1378G11  C06R94652   3.353   5.616   7.154
  1378G11  C06B94653   3.307   5.534   7.255
  1378G11  C06S94654   3.310   5.395   7.236
  1378G11  C02G94655   3.246   5.312   7.330
  1378G11  C02F94656   3.241   5.171   7.312
  1378G11  C02794657   3.294   5.118   7.196
  1378G11  C02694658   3.283   4.982   7.179
  1378G11  C00E94659   3.332   4.925   7.063
  1378G11  C00D94660   3.314   4.792   7.038
  1378G11  C00C94661   3.338   4.749   6.912
  1378G11  C00B94662   3.380   4.821   6.803
  1378G11  C01594663   3.406   4.957   6.829
  1378G11  C07F94664   3.446   5.042   6.725
  1378G11  C07E94665   3.458   5.181   6.748
  1378G11  C06W94666   3.437   5.228   6.876
  1378G11  C06V94667   3.397   5.144   6.976
  1378G11  C06X94668   3.449   5.365   6.897
  1378G11  C07B94669   3.480   5.449   6.790
  1378G11  C07C94670   3.503   5.399   6.664
  1378G11  C0FU94671   3.525   5.484   6.556
  1378G11  C0F794672   3.549   5.433   6.429
  1378G11  C0F694673   3.564   5.524   6.324
  1378G11  C0F894674   3.574   5.474   6.196
  1378G11  C0F994675   3.597   5.563   6.093
  1378G11  C0FA94676   3.611   5.509   5.965
  1378G11  C0FZ94677   3.588   5.377   5.940
  1378G11  C0G094678   3.603   5.326   5.810
  1378G11  C0GD94679   3.646   5.401   5.697
  1378G11  C0FC94680   3.681   5.532   5.725
  1378G11  C0GH94681   3.729   5.614   5.621
  1378G11  C0EY94682   3.769   5.745   5.650
  1378G11  C0EX94683   3.825   5.826   5.551
  1378G11  C0EW94684   3.858   5.959   5.584
  1378G11  C0FR94685   3.891   6.048   5.478
  1378G11  H01D94686   3.902   6.155   5.487
  1378G11  C0FS94687   3.899   6.003   5.346
  1378G11  H01C94688   3.914   6.073   5.264
  1378G11  C0GJ94689   3.887   5.865   5.320
  1378G11  H01N94690   3.899   5.824   5.221
  1378G11  C0EV94691   3.839   6.007   5.711
  1378G11  C0FT94692   3.886   6.136   5.749
  1378G11  H01E94693   3.948   6.200   5.689
  1378G11  C0EU94694   3.782   5.930   5.807
  1378G11  C0ET94695   3.754   5.981   5.932
  1378G11  C0EI94696   3.687   5.914   6.033
  1378G11  C0F194697   3.665   5.776   6.011
  1378G11  C0F094698   3.691   5.720   5.883
  1378G11  C0EH94699   3.658   5.978   6.159
  1378G11  C0EG94700   3.659   6.123   6.177
  1378G11  C0EJ94701   3.616   5.893   6.263
  1378G11  C0F394702   3.601   5.752   6.240
  1378G11  C0EK94703   3.580   5.947   6.386
  1378G11  C0EL94704   3.589   6.091   6.408
  1378G11  C0EM94705   3.556   6.125   6.545
  1378G11  C0EN94706   3.525   6.024   6.636
  1378G11  C07I94707   3.491   6.080   6.757
  1378G11  C07494708   3.447   5.997   6.861
  1378G11  C07394709   3.402   6.058   6.971
  1378G11  C07294710   3.362   5.976   7.078
  1378G11  C07594711   3.455   5.862   6.842
  1378G11  C07694712   3.492   5.809   6.716
  1378G11  C07894713   3.497   5.672   6.702
  1378G11  C07G94714   3.420   5.780   6.944
  1378G11  C07094715   3.435   5.642   6.927
  1378G11  C07Z94716   3.487   6.214   6.758
  1378G11  C07794717   3.525   5.889   6.611
  1378G11  C0EO94718   3.549   5.849   6.485
  1378G11  C0F494719   3.549   5.711   6.469
  1378G11  C0EQ94720   3.773   6.113   5.954
  1378G11  C0FQ94721   3.844   5.778   5.423
  1378G11  C0GI94722   3.811   5.643   5.402
  1378G11  H01L94723   3.836   5.603   5.305
  1378G11  C0EZ94724   3.745   5.801   5.779
  1378G11  C0GG94725   3.756   5.555   5.501
  1378G11  C0GF94726   3.727   5.420   5.475
  1378G11  H01M94727   3.748   5.379   5.377
  1378G11  C0GE94728   3.659   5.350   5.570
  1378G11  H01K94729   3.632   5.249   5.543
  1378G11  O00J94730   3.581   5.193   5.783
  1378G11  C0GA94731   3.560   5.103   5.886
  1378G11  C0G994732   3.534   4.970   5.859
  1378G11  H01H94733   3.549   4.932   5.759
  1378G11  C0G894734   3.516   4.877   5.966
  1378G11  C0G794735   3.493   4.738   5.948
  1378G11  H01I94736   3.505   4.700   5.848
  1378G11  O00I94737   3.464   4.653   6.046
  1378G11  C0G694738   3.468   4.702   6.171
  1378G11  H01J94739   3.482   4.623   6.244
  1378G11  C02D94740   3.478   4.838   6.204
  1378G11  C02C94741   3.461   4.891   6.335
  1378G11  C01794742   3.422   4.805   6.442
  1378G11  C01694743   3.427   4.847   6.574
  1378G11  O00194744   3.367   4.679   6.417
  1378G11  C01894745   3.323   4.593   6.511
  1378G11  C00994746   3.335   4.634   6.645
  1378G11  C00894747   3.293   4.560   6.762
  1378G11  C00794748   3.225   4.429   6.782
  1378G11  C00694749   3.173   4.352   6.671
  1378G11  C00594750   3.095   4.234   6.681
  1378G11  C00494751   3.030   4.178   6.790
  1378G11  C00394752   3.021   4.223   6.932
  1378G11  C00294753   2.928   4.157   7.019
  1378G11  C00P94754   2.903   4.202   7.155
  1378G11  C00O94755   2.809   4.140   7.242
  1378G11  C00N94756   2.777   4.195   7.366
  1378G11  C01094757   2.671   4.142   7.441
  1378G11  C01194758   2.637   4.189   7.567
  1378G11  C01Q94759   2.526   4.144   7.638
  1378G11  C01U94760   2.442   4.040   7.587
  1378G11  C01294761   2.494   3.978   7.470
  1378G11  H00094762   2.436   3.895   7.432
  1378G11  C01V94763   2.317   4.012   7.647
  1378G11  H00794764   2.251   3.938   7.606
  1378G11  O00594765   2.274   4.073   7.763
  1378G11  C01W94766   2.365   4.158   7.828
  1378G11  C03194767   2.336   4.207   7.948
  1378G11  C03294768   2.425   4.292   8.016
  1378G11  H00A94769   2.413   4.322   8.120
  1378G11  C03394770   2.529   4.345   7.947
  1378G11  H00B94771   2.589   4.414   8.004
  1378G11  C01O94772   2.551   4.314   7.811
  1378G11  C01N94773   2.650   4.378   7.735
  1378G11  C01M94774   2.691   4.515   7.763
  1378G11  C01L94775   2.659   4.641   7.846
  1378G11  C01K94776   2.765   4.725   7.807
  1378G11  C01Y94777   2.778   4.857   7.838
  1378G11  C02I94778   2.691   4.912   7.931
  1378G11  C02N94779   2.711   5.052   7.958
  1378G11  C02M94780   2.616   5.107   8.047
  1378G11  C02L94781   2.508   5.040   8.106
  1378G11  C02K94782   2.486   4.904   8.067
  1378G11  C02U94783   2.369   4.845   8.111
  1378G11  C02V94784   2.283   4.907   8.200
  1378G11  C03H94785   2.178   4.840   8.263
  1378G11  H00C94786   2.173   4.732   8.267
  1378G11  C02W94787   2.341   4.716   8.069
  1378G11  C02X94788   2.430   4.659   7.983
  1378G11  C02Y94789   2.347   4.557   7.930
  1378G11  H00894790   2.364   4.500   7.840
  1378G11  C02Z94791   2.220   4.539   8.008
  1378G11  O00494792   2.138   4.451   8.015
  1378G11  O00394793   2.226   4.653   8.076
  1378G11  C02J94794   2.581   4.839   7.982
  1378G11  C01Z94795   2.878   4.924   7.768
  1378G11  C02094796   2.949   4.867   7.661
  1378G11  C01I94797   2.939   4.736   7.638
  1378G11  C01H94798   2.992   4.675   7.527
  1378G11  C00K94799   2.953   4.545   7.497
  1378G11  C01S94800   2.860   4.481   7.577
  1378G11  C01494801   2.804   4.363   7.537
  1378G11  C00J94802   2.999   4.486   7.378
  1378G11  C00I94803   3.082   4.558   7.295
  1378G11  C00H94804   3.110   4.690   7.325
  1378G11  C00G94805   3.193   4.769   7.246
  1378G11  C00S94806   3.122   4.498   7.175
  1378G11  C00T94807   3.208   4.579   7.106
  1378G11  C00U94808   3.240   4.529   6.980
  1378G11  C00R94809   3.064   4.375   7.125
  1378G11  C00L94810   2.950   4.361   7.338
  1378G11  C02894811   3.069   4.747   7.443
  1378G11  C02394812   3.095   4.879   7.474
  1378G11  C02494813   3.169   4.954   7.388
  1378G11  C02194814   3.037   4.942   7.579
  1378G11  C02294815   3.053   5.071   7.602
  1378G11  C02H94816   3.126   5.152   7.517
  1378G11  C03094817   3.140   5.294   7.536
  1378G11  C03494818   3.091   5.343   7.652
  1378G11  C02P94819   2.993   5.131   7.711
  1378G11  C02B94820   2.902   5.055   7.795
  1378G11  C01J94821   2.855   4.668   7.722
  1378G11  C01X94822   2.556   4.701   7.937
  1378G11  C01T94823   2.808   4.546   7.692
  1378G11  H00994824   2.252   4.178   8.009
  1378G11  C01P94825   2.483   4.206   7.758
  1378G11  C01R94826   2.699   4.311   7.615
  1378G11  C00Z94827   2.600   4.028   7.387
  1378G11  O00094828   2.631   3.979   7.260
  1378G11  C00M94829   2.845   4.304   7.419
  1378G11  C00Y94830   2.732   4.035   7.187
  1378G11  C01394831   2.765   3.984   7.062
  1378G11  H00194832   2.716   3.894   7.027
  1378G11  C00Q94833   2.976   4.306   7.209
  1378G11  C00194834   2.861   4.036   6.974
  1378G11  C00094835   2.897   3.981   6.856
  1378G11  H00694836   2.846   3.890   6.827
  1378G11  C00W94837   3.093   4.331   6.994
  1378G11  C01G94838   2.979   4.050   6.770
  1378G11  H00594839   3.002   3.997   6.679
  1378G11  C01C94840   3.076   4.182   6.545
  1378G11  H00294841   3.013   4.100   6.511
  1378G11  C01B94842   3.145   4.264   6.461
  1378G11  C01D94843   3.146   4.262   6.314
  1378G11  H00394844   3.092   4.184   6.263
  1378G11  C01E94845   3.217   4.362   6.262
  1378G11  H00494846   3.213   4.376   6.155
  1378G11  O00294847   3.292   4.455   6.330
  1378G11  C01A94848   3.208   4.365   6.534
  1378G11  C00V94849   3.181   4.415   6.915
  1378G11  C01994850   3.274   4.469   6.464
  1378G11  C02E94851   3.491   5.025   6.357
  1378G11  C0FX94852   3.513   5.114   6.251
  1378G11  C0FW94853   3.533   5.249   6.279
  1378G11  C0GB94854   3.520   5.062   6.120
  1378G11  C0G394855   3.492   5.068   6.490
  1378G11  C07H94856   3.506   5.205   6.513
  1378G11  C0GC94857   3.499   4.925   6.093
  1378G11  C0G294858   3.548   5.156   6.019
  1378G11  C0G194859   3.566   5.291   6.043
  1378G11  C0FB94860   3.665   5.585   5.859
  1378G11  C0F294861   3.621   5.699   6.116
  1378G11  C0FY94862   3.556   5.338   6.175
  1378G11  C0F594863   3.571   5.659   6.345
  1378G11  C0FV94864   3.534   5.296   6.410
  1378G11  C07994865   3.525   5.625   6.576
  1378G11  C07A94866   3.473   5.587   6.807
  1378G11  C06Y94867   3.411   5.419   7.020
  1378G11  C07D94868   3.498   5.259   6.641
  1378G11  C01F94869   3.462   4.982   6.598
  1378G11  C00A94870   3.384   4.764   6.673
  1378G11  C00X94871   3.296   4.616   6.886
  1378G11  C00F94872   3.247   4.710   7.135
  1378G11  C02994873   3.381   5.009   6.961
  1378G11  C02594874   3.215   4.899   7.272
  1378G11  C06U94875   3.350   5.201   7.093
  1378G11  C02A94876   3.184   5.096   7.406
  1378G11  C05Y94877   3.197   5.372   7.445
  1378G11  C05Z94878   3.197   5.509   7.466
  1378G11  C06094879   3.141   5.564   7.574
  1378G11  C06294880   3.131   5.702   7.594
  1378G11  C06T94881   3.360   5.336   7.120
  1378G11  C06A94882   3.245   5.593   7.368
  1378G11  C06Z94883   3.407   5.556   7.033
  1378G11  C06Q94884   3.373   5.835   7.060
  1378G11  C06894885   3.237   5.730   7.384
  1378G11  C06794886   3.182   5.789   7.498
  1378G11  C06394887   3.142   6.203   7.529
  1378G11  C06C94888   3.125   6.340   7.531
  1378G11  C06D94889   3.082   6.407   7.645
  1378G11  C06E94890   3.051   6.540   7.654
  1378G11  C07Q94891   3.068   6.615   7.543
  1378G11  C07P94892   3.134   6.556   7.434
  1378G11  C07T94893   3.152   6.636   7.323
  1378G11  C07U94894   3.214   6.576   7.213
  1378G11  C07V94895   3.242   6.655   7.103
  1378G11  C08494896   3.194   6.786   7.096
  1378G11  C08C94897   3.125   6.836   7.205
  1378G11  C08B94898   3.068   6.963   7.195
  1378G11  C08A94899   2.998   7.008   7.306
  1378G11  C08994900   2.991   6.940   7.425
  1378G11  C08894901   2.935   7.004   7.538
  1378G11  C08794902   2.919   6.932   7.655
  1378G11  C08694903   2.964   6.803   7.658
  1378G11  C08X94904   2.901   7.139   7.536
  1378G11  C08T94905   2.895   7.210   7.406
  1378G11  C08D94906   3.043   6.812   7.428
  1378G11  C08U94907   2.939   7.136   7.301
  1378G11  C08V94908   2.961   7.218   7.194
  1378G11  C0CY94909   3.033   7.171   7.081
  1378G11  C0CX94910   3.047   7.255   6.979
  1378G11  C0CW94911   3.117   7.205   6.872
  1378G11  C0CV94912   3.172   7.079   6.872
  1378G11  C0D494913   3.159   6.999   6.983
  1378G11  C0CU94914   3.247   7.030   6.766
  1378G11  C0CT94915   3.254   7.099   6.641
  1378G11  C0CS94916   3.195   7.228   6.640
  1378G11  C0D694917   3.302   6.908   6.782
  1378G11  C0EC94918   3.284   6.822   6.888
  1378G11  C07X94919   3.341   6.696   6.894
  1378G11  C0DL94920   3.374   6.859   6.678
  1378G11  C0DK94921   3.432   6.733   6.681
  1378G11  C0DN94922   3.490   6.718   6.564
  1378G11  C0D894923   3.376   6.919   6.549
  1378G11  C08W94924   2.911   7.346   7.211
  1378G11  C0CQ94925   2.949   7.442   7.109
  1378G11  C09394926   3.082   7.044   7.086
  1378G11  C09294927   3.211   6.870   6.992
  1378G11  C08594928   3.108   6.762   7.317
  1378G11  C07S94929   3.027   6.746   7.546
  1378G11  C06F94930   2.998   6.595   7.773
  1378G11  C07O94931   3.160   6.420   7.427
  1378G11  C07N94932   3.206   6.359   7.314
  1378G11  C05D94933   3.080   6.335   7.759
  1378G11  C05C94934   3.036   6.390   7.873
  1378G11  C05N94935   3.006   6.285   7.955
  1378G11  C05M94936   2.982   5.925   7.852
  1378G11  C05I94937   3.064   5.755   7.712
  1378G11  C06194938   3.092   5.482   7.669
  1378G11  C02Q94939   3.016   5.261   7.731
  1378G11  C02O94940   2.823   5.113   7.896
  1378G11  C03Q94941   2.875   5.468   7.953
  1378G11  C03O94942   2.729   5.604   8.090
  1378G11  C03L94943   2.444   5.529   8.269
  1378G11  C02S94944   2.621   5.250   8.085
  1378G11  C02T94945   2.407   5.110   8.187
  1378G11  C03K94946   2.316   5.464   8.309
  1378G11  C03I94947   2.298   5.042   8.230
  1378G11  C03G94948   2.078   4.905   8.337
  1378G11  H00D94949   1.997   4.848   8.379
  1378G11  C03J94950   2.098   5.315   8.386
  1378G11  C03W94951   1.869   5.435   8.513
  1378G11  C04I94952   1.973   5.643   8.526
  1378G11  C04K94953   2.003   5.922   8.576
  1378G11  C04N94954   2.033   6.057   8.594
  1378G11  C04X94955   2.173   6.255   8.564
  1378G11  C05094956   2.312   6.465   8.523
  1378G11  C05W94957   2.495   6.302   8.390
  1378G11  C05S94958   2.614   6.745   8.291
  1378G11  C05R94959   2.744   6.415   8.270
  1378G11  C05O94960   2.929   6.322   8.074
  1378G11  C05B94961   2.980   6.518   7.883
  1378G11  C05A94962   2.787   6.716   8.120
  1378G11  C07R94963   2.949   6.728   7.775
  1378G11  C08N94964   2.859   6.989   7.764
  1378G11  C08M94965   2.837   7.127   7.760
  1378G11  C08L94966   2.781   7.191   7.869
  1378G11  C09194967   2.682   6.808   8.172
  1378G11  C09K94968   2.627   7.143   8.274
  1378G11  H00M94969   2.682   7.115   8.363
  1378G11  C08K94970   2.701   7.106   7.956
  1378G11  C09J94971   2.577   7.275   8.235
  1378G11  C09I94972   2.601   7.412   8.269
  1378G11  C09L94973   2.585   7.482   8.393
  1378G11  H00N94974   2.575   7.437   8.491
  1378G11  C09Q94975   2.588   7.617   8.385
  1378G11  H00O94976   2.577   7.672   8.477
  1378G11  O00B94977   2.605   7.694   8.267
  1378G11  C09G94978   2.609   7.632   8.144
  1378G11  C09F94979   2.631   7.718   8.032
  1378G11  O00A94980   2.575   7.846   8.037
  1378G11  C09P94981   2.599   7.924   7.930
  1378G11  H00P94982   2.626   8.024   7.961
  1378G11  C09O94983   2.644   7.882   7.804
  1378G11  C09D94984   2.726   7.770   7.808
  1378G11  C09C94985   2.823   7.725   7.705
  1378G11  C09N94986   2.835   7.757   7.562
  1378G11  C09T94987   2.731   7.820   7.490
  1378G11  C09S94988   2.643   7.917   7.549
  1378G11  C0CP94989   2.575   7.976   7.440
  1378G11  C0CN94990   2.616   7.922   7.318
  1378G11  C0CO94991   2.541   7.963   7.206
  1378G11  H01494992   2.555   7.916   7.110
  1378G11  C0CZ94993   2.448   8.068   7.229
  1378G11  H01594994   2.399   8.109   7.141
  1378G11  C0D094995   2.419   8.137   7.350
  1378G11  C0G594996   2.330   8.252   7.372
  1378G11  H01F94997   2.273   8.295   7.291
  1378G11  C0G494998   2.318   8.298   7.497
  1378G11  H01G94999   2.249   8.380   7.512
  1378G11  O00H95000   2.379   8.246   7.609
  1378G11  C0D295001   2.468   8.143   7.593
  1378G11  C09V95002   2.530   8.076   7.700
  1378G11  H00Q95003   2.508   8.112   7.799
  1378G11  C0D195004   2.486   8.083   7.467
  1378G11  C09R95005   2.609   7.956   7.684
  1378G11  C09H95006   2.602   7.491   8.144
  1378G11  C09E95007   2.713   7.679   7.921
  1378G11  C09B95008   2.907   7.615   7.720
  1378G11  C08Z95009   2.794   7.330   7.874
  1378G11  C08O95010   2.891   7.204   7.651
  1378G11  C09A95011   2.968   7.571   7.601
  1378G11  C08S95012   2.871   7.343   7.351
  1378G11  C09995013   2.929   7.660   7.503
  1378G11  C09U95014   2.724   7.828   7.342
  1378G11  C0BO95015   2.876   7.854   6.882
  1378G11  C0CL95016   2.913   7.577   7.120
  1378G11  C0D395017   3.005   7.390   6.988
  1378G11  C0D595018   3.130   7.283   6.756
  1378G11  C0BR95019   2.981   7.667   6.759
  1378G11  C0BQ95020   2.926   7.796   6.761
  1378G11  C0BL95021   2.828   8.056   6.763
  1378G11  C0AF95022   2.813   8.196   6.535
  1378G11  C0BH95023   2.988   7.894   6.411
  1378G11  C0BG95024   3.030   7.837   6.290
  1378G11  C0BD95025   2.988   8.046   6.177
  1378G11  C0AG95026   2.820   8.264   6.416
  1378G11  C0AI95027   2.711   8.442   6.291
  1378G11  C0AV95028   2.627   8.545   6.055
  1378G11  C0BB95029   2.918   8.332   5.958
  1378G11  O00C95030   2.656   8.530   5.804
  1378G11  C0BC95031   2.944   8.299   5.832
  1378G11  C0B995032   2.982   8.120   6.059
  1378G11  O00E95033   3.066   7.868   5.806
  1378G11  C0CA95034   3.103   7.734   5.802
  1378G11  O00F95035   3.112   7.686   5.688
  1378G11  C0BF95036   3.028   7.912   6.172
  1378G11  C0C595037   3.119   7.664   5.922
  1378G11  C0C495038   3.156   7.527   5.914
  1378G11  H01195039   3.166   7.481   5.817
  1378G11  C0C895040   3.075   7.705   6.286
  1378G11  C0C295041   3.171   7.457   6.039
  1378G11  C0C395042   3.214   7.319   6.044
  1378G11  C0DY95043   3.229   7.230   5.939
  1378G11  H01695044   3.211   7.253   5.835
  1378G11  C0DX95045   3.276   7.103   6.002
  1378G11  C0DW95046   3.319   6.996   5.918
  1378G11  C0BY95047   3.124   7.503   6.406
  1378G11  C0DB95048   3.241   7.251   6.162
  1378G11  C0CC95049   3.195   7.302   6.522
  1378G11  C0D795050   3.308   7.042   6.524
  1378G11  C0DZ95051   3.282   7.118   6.149
  1378G11  C0DM95052   3.454   6.824   6.469
  1378G11  C0DQ95053   3.412   6.846   6.101
  1378G11  C0DV95054   3.382   6.883   5.967
  1378G11  C0E095055   3.328   6.990   5.773
  1378G11  C0FO95056   3.587   6.822   5.604
  1378G11  C0E395057   3.405   7.080   5.689
  1378G11  H01795058   3.436   7.179   5.718
  1378G11  C0GV95059   3.659   6.919   5.532
  1378G11  C0ES95060   3.659   6.728   5.677
  1378G11  C0GQ95061   4.006   6.820   5.561
  1378G11  C0FJ95062   4.100   6.523   5.767
  1378G11  C0ED95063   3.825   6.539   5.820
  1378G11  C0ER95064   3.841   6.189   5.868
  1378G11  C0EP95065   3.721   6.185   6.063
  1378G11  C0E695066   3.626   6.540   5.988
  1378G11  C0DE95067   3.577   6.568   6.298
  1378G11  C0EA95068   3.623   6.181   6.301
  1378G11  C0DF95069   3.614   6.544   6.434
  1378G11  C08095070   3.540   6.243   6.625
  1378G11  C0DO95071   3.542   6.593   6.544
  1378G11  C0DJ95072   3.414   6.643   6.792
  1378G11  C07K95073   3.436   6.281   6.878
  1378G11  C07W95074   3.314   6.609   6.999
  1378G11  C08395075   3.245   6.440   7.206
  1378G11  C07J95076   3.387   6.199   6.974
  1378G11  C06O95077   3.307   6.036   7.193
  1378G11  C06M95078   3.235   6.225   7.309
  1388G11  C07195079   5.716   2.938   6.911
  1388G11  C07L95080   5.622   2.974   6.813
  1388G11  C07M95081   5.489   2.996   6.848
  1388G11  C07Y95082   5.391   3.021   6.749
  1388G11  C08195083   5.431   3.043   6.612
  1388G11  C08295084   5.324   3.052   6.521
  1388G11  C0DI95085   5.330   3.058   6.377
  1388G11  C0DH95086   5.433   3.075   6.279
  1388G11  C0DG95087   5.384   3.041   6.145
  1388G11  C0E995088   5.423   3.087   6.014
  1388G11  C0E895089   5.289   3.093   5.939
  1388G11  C0E795090   5.267   3.136   5.800
  1388G11  C0EB95091   5.379   3.183   5.715
  1388G11  C0EF95092   5.377   3.252   5.589
  1388G11  C0EE95093   5.311   3.182   5.484
  1388G11  C0FD95094   5.376   3.125   5.370
  1388G11  C0FE95095   5.508   3.069   5.371
  1388G11  H01B95096   5.555   3.051   5.466
  1388G11  C0FF95097   5.586   3.054   5.258
  1388G11  H01A95098   5.690   3.025   5.261
  1388G11  C0FG95099   5.524   3.061   5.135
  1388G11  H01895100   5.577   3.039   5.044
  1388G11  C0FH95101   5.388   3.086   5.126
  1388G11  C0FI95102   5.306   3.077   5.013
  1388G11  H01995103   5.351   3.056   4.917
  1388G11  O00K95104   5.167   3.079   5.012
  1388G11  C0FL95105   5.106   3.102   5.130
  1388G11  C0FK95106   5.179   3.130   5.250
  1388G11  C0FM95107   5.103   3.156   5.365
  1388G11  C0FN95108   4.961   3.158   5.360
  1388G11  C0FP95109   4.898   3.119   5.242
  1388G11  C0GO95110   4.772   3.066   5.244
  1388G11  C0GN95111   4.714   2.993   5.141
  1388G11  C0GR95112   4.784   2.981   5.023
  1388G11  C0GS95113   4.729   2.919   4.909
  1388G11  H01Q95114   4.784   2.912   4.817
  1388G11  C0GT95115   4.605   2.858   4.920
  1388G11  H01O95116   4.561   2.809   4.834
  1388G11  C0GU95117   4.537   2.865   5.044
  1388G11  H01P95118   4.437   2.826   5.057
  1388G11  O00L95119   4.911   3.034   5.015
  1388G11  C0GM95120   4.586   2.934   5.157
  1388G11  C0GL95121   4.518   2.949   5.279
  1388G11  H01R95122   4.422   2.899   5.284
  1388G11  C0GK95123   4.565   3.040   5.376
  1388G11  C0GP95124   4.531   3.087   5.508
  1388G11  C0E295125   4.633   3.187   5.542
  1388G11  C0E195126   4.644   3.189   5.682
  1388G11  C0DU95127   4.760   3.155   5.757
  1388G11  C0DT95128   4.895   3.172   5.719
  1388G11  C0E495129   4.949   3.185   5.594
  1388G11  C0E595130   5.088   3.175   5.608
  1388G11  C0DS95131   4.999   3.131   5.807
  1388G11  C0DR95132   4.952   3.079   5.930
  1388G11  C0DD95133   5.033   3.049   6.039
  1388G11  C0DC95134   4.931   3.030   6.153
  1388G11  C0DP95135   4.795   3.025   6.108
  1388G11  C0DA95136   4.668   3.019   6.183
  1388G11  C0D995137   4.633   3.034   6.324
  1388G11  C0CR95138   4.500   3.043   6.370
  1388G11  C0C095139   4.393   3.023   6.287
  1388G11  C0BZ95140   4.256   3.031   6.316
  1388G11  C0C195141   4.158   3.007   6.219
  1388G11  C0C795142   4.024   3.020   6.251
  1388G11  C0C695143   3.924   3.006   6.158
  1388G11  C0C995144   3.791   3.026   6.193
  1388G11  C0B895145   3.690   3.009   6.094
  1388G11  C0B795146   3.555   3.014   6.121
  1388G11  C0B695147   3.442   2.985   6.036
  1388G11  C0B595148   3.445   2.873   5.949
  1388G11  H00Z95149   3.537   2.826   5.919
  1388G11  C0B495150   3.312   2.812   5.942
  1388G11  H01095151   3.283   2.719   5.896
  1388G11  C0B395152   3.217   2.897   6.020
  1388G11  C0AP95153   3.130   2.858   6.134
  1388G11  C0AQ95154   3.175   2.932   6.244
  1388G11  C0AR95155   3.155   2.883   6.375
  1388G11  C0AS95156   3.236   2.939   6.468
  1388G11  C0AT95157   3.355   3.000   6.437
  1388G11  C0BA95158   3.392   3.027   6.309
  1388G11  C0AU95159   3.456   3.013   6.530
  1388G11  C0BE95160   3.584   3.045   6.492
  1388G11  C0BI95161   3.684   3.040   6.587
  1388G11  C0BJ95162   3.657   3.004   6.717
  1388G11  C0BK95163   3.755   3.009   6.813
  1388G11  C0BW95164   3.884   3.029   6.780
  1388G11  C0BV95165   3.919   3.049   6.649
  1388G11  C0BU95166   4.052   3.051   6.615
  1388G11  C0BX95167   4.090   3.050   6.481
  1388G11  C0BT95168   4.150   3.042   6.715
  1388G11  C0CD95169   4.290   3.044   6.676
  1388G11  C0CB95170   4.322   3.061   6.542
  1388G11  C0CE95171   4.388   3.043   6.777
  1388G11  C0CK95172   4.351   3.031   6.913
  1388G11  C0BS95173   4.216   3.030   6.951
  1388G11  C0CJ95174   4.179   3.008   7.089
  1388G11  C0BP95175   4.042   3.006   7.120
  1388G11  C0CI95176   3.995   2.978   7.254
  1388G11  C0CH95177   3.856   3.002   7.278
  1388G11  H01295178   3.825   3.012   7.381
  1388G11  C0BN95179   3.763   2.996   7.175
  1388G11  C0CG95180   3.632   2.960   7.206
  1388G11  C0CF95181   3.579   2.947   7.345
  1388G11  H01395182   3.637   2.988   7.426
  1388G11  O00G95183   3.458   2.896   7.369
  1388G11  C0AA95184   3.385   2.841   7.267
  1388G11  C0A995185   3.275   2.770   7.302
  1388G11  H00U95186   3.247   2.750   7.404
  1388G11  C0A895187   3.201   2.702   7.203
  1388G11  H00V95188   3.122   2.640   7.245
  1388G11  C0A795189   3.238   2.707   7.065
  1388G11  C0A695190   3.347   2.797   7.032
  1388G11  C0A595191   3.373   2.849   6.904
  1388G11  C0A495192   3.287   2.828   6.795
  1388G11  C0A395193   3.167   2.755   6.768
  1388G11  C0A295194   3.143   2.637   6.838
  1388G11  C0A195195   3.053   2.533   6.789
  1388G11  C0A095196   2.986   2.509   6.657
  1388G11  C09Z95197   2.922   2.386   6.654
  1388G11  C09Y95198   2.855   2.333   6.542
  1388G11  H00Y95199   2.800   2.240   6.545
  1388G11  C09X95200   2.856   2.412   6.426
  1388G11  C09W95201   2.773   2.370   6.317
  1388G11  H00R95202   2.703   2.288   6.324
  1388G11  C0AX95203   2.777   2.436   6.196
  1388G11  H00S95204   2.716   2.411   6.110
  1388G11  C0AW95205   2.875   2.539   6.184
  1388G11  H00T95206   2.898   2.584   6.088
  1388G11  C0AN95207   2.949   2.593   6.292
  1388G11  C0AO95208   3.035   2.704   6.277
  1388G11  C0AM95209   2.930   2.534   6.417
  1388G11  C0B295210   2.906   2.294   6.765
  1388G11  O00D95211   2.836   2.189   6.761
  1388G11  C0B195212   2.969   2.323   6.888
  1388G11  H00W95213   2.942   2.265   6.975
  1388G11  C0AL95214   2.991   2.586   6.536
  1388G11  C0AK95215   3.063   2.705   6.518
  1388G11  C0B095216   3.044   2.444   6.894
  1388G11  C0AZ95217   3.107   2.501   7.008
  1388G11  H00X95218   3.111   2.444   7.100
  1388G11  C0AJ95219   3.136   2.771   6.628
  1388G11  C0AH95220   3.307   2.918   6.690
  1388G11  C0AE95221   3.495   2.922   6.876
  1388G11  C0AD95222   3.587   2.938   6.975
  1388G11  C0AY95223   3.170   2.623   6.977
  1388G11  C0AB95224   3.428   2.850   7.132
  1388G11  C0AC95225   3.550   2.912   7.103
  1388G11  C0BM95226   3.810   3.001   7.047
  1388G11  C0CM95227   4.094   2.917   7.340
  1388G11  C09M95228   4.232   2.944   7.320
  1388G11  C09895229   4.310   2.961   7.440
  1388G11  C08R95230   4.445   2.970   7.466
  1388G11  C08Q95231   4.481   2.982   7.603
  1388G11  C08P95232   4.592   2.933   7.688
  1388G11  C08Y95233   4.568   2.909   7.821
  1388G11  C09795234   4.437   2.889   7.858
  1388G11  C09695235   4.431   2.775   7.935
  1388G11  C09095236   4.558   2.756   7.989
  1388G11  C09595237   4.598   2.648   8.077
  1388G11  C09495238   4.728   2.636   8.137
  1388G11  C08J95239   4.853   2.676   8.078
  1388G11  C08I95240   4.952   2.568   8.105
  1388G11  C08H95241   5.051   2.572   8.002
  1388G11  C08G95242   5.000   2.676   7.905
  1388G11  C08F95243   5.049   2.731   7.777
  1388G11  C08E95244   5.185   2.720   7.736
  1388G11  C05995245   5.284   2.641   7.800
  1388G11  C05895246   5.418   2.654   7.764
  1388G11  C05795247   5.524   2.593   7.826
  1388G11  C05695248   5.489   2.486   7.909
  1388G11  C05595249   5.362   2.442   7.922
  1388G11  C05495250   5.351   2.350   8.026
  1388G11  C05395251   5.488   2.327   8.075
  1388G11  C05295252   5.545   2.236   8.170
  1388G11  C05195253   5.450   2.158   8.249
  1388G11  C05U95254   5.309   2.192   8.268
  1388G11  C05T95255   5.213   2.292   8.218
  1388G11  C06K95256   5.096   2.278   8.302
  1388G11  H00J95257   5.010   2.343   8.300
  1388G11  C06L95258   5.113   2.171   8.391
  1388G11  H00I95259   5.067   2.135   8.482
  1388G11  C05V95260   5.246   2.108   8.364
  1388G11  C06J95261   5.294   1.995   8.428
  1388G11  H00K95262   5.237   1.937   8.499
  1388G11  C05X95263   5.430   1.961   8.406
  1388G11  C06I95264   5.493   1.849   8.470
  1388G11  H00L95265   5.434   1.793   8.541
  1388G11  C04Z95266   5.627   1.810   8.448
  1388G11  C06H95267   5.678   1.687   8.496
  1388G11  H00H95268   5.614   1.621   8.553
  1388G11  C04Y95269   5.813   1.656   8.458
  1388G11  C06G95270   5.856   1.526   8.498
  1388G11  O00995271   5.788   1.443   8.558
  1388G11  O00895272   5.984   1.490   8.471
  1388G11  C04P95273   6.074   1.574   8.404
  1388G11  C04J95274   6.209   1.540   8.363
  1388G11  C04Q95275   6.273   1.415   8.366
  1388G11  H00E95276   6.213   1.328   8.387
  1388G11  C04M95277   6.404   1.395   8.326
  1388G11  C04R95278   6.474   1.273   8.321
  1388G11  H00F95279   6.424   1.181   8.350
  1388G11  C04S95280   6.601   1.274   8.287
  1388G11  H00G95281   6.653   1.179   8.282
  1388G11  O00795282   6.676   1.382   8.254
  1388G11  C03V95283   6.604   1.492   8.233
  1388G11  C03U95284   6.676   1.594   8.170
  1388G11  O00695285   6.799   1.576   8.139
  1388G11  C03F95286   6.860   1.647   8.038
  1388G11  C03E95287   6.805   1.769   7.992
  1388G11  C03D95288   6.679   1.800   8.043
  1388G11  C03C95289   6.611   1.916   7.992
  1388G11  C03B95290   6.679   1.980   7.886
  1388G11  C03A95291   6.614   2.090   7.826
  1388G11  C03995292   6.475   2.123   7.855
  1388G11  C03895293   6.448   2.231   7.760
  1388G11  C03795294   6.568   2.244   7.685
  1388G11  C03695295   6.580   2.347   7.594
  1388G11  C02R95296   6.673   2.377   7.504
  1388G11  C03595297   6.627   2.482   7.424
  1388G11  C03R95298   6.501   2.511   7.464
  1388G11  C03S95299   6.408   2.575   7.379
  1388G11  C04995300   6.283   2.578   7.431
  1388G11  C04895301   6.254   2.507   7.554
  1388G11  C03P95302   6.344   2.414   7.618
  1388G11  C04795303   6.123   2.536   7.598
  1388G11  C04695304   6.073   2.485   7.718
  1388G11  C04595305   6.128   2.399   7.820
  1388G11  C03T95306   6.235   2.314   7.821
  1388G11  C04495307   6.218   2.235   7.931
  1388G11  C04395308   6.110   2.276   8.006
  1388G11  C04295309   6.055   2.174   8.083
  1388G11  C04195310   6.167   2.081   8.086
  1388G11  C04095311   6.176   1.972   8.180
  1388G11  C03Z95312   6.279   1.869   8.173
  1388G11  C04H95313   6.223   1.764   8.256
  1388G11  C04G95314   6.103   1.797   8.306
  1388G11  C03N95315   6.413   1.853   8.118
  1388G11  C03Y95316   6.473   1.728   8.162
  1388G11  C03X95317   6.411   1.629   8.246
  1388G11  C04F95318   6.068   1.924   8.259
  1388G11  C04E95319   5.933   1.961   8.282
  1388G11  C04O95320   5.841   1.867   8.350
  1388G11  C04D95321   5.869   2.079   8.235
  1388G11  C04V95322   5.729   2.092   8.246
  1388G11  C04W95323   5.645   2.008   8.315
  1388G11  C04C95324   5.920   2.177   8.145
  1388G11  C04L95325   5.805   2.256   8.109
  1388G11  C04U95326   5.812   2.368   8.029
  1388G11  C05Q95327   5.700   2.433   7.971
  1388G11  C05P95328   5.743   2.525   7.876
  1388G11  C04T95329   5.868   2.504   7.845
  1388G11  C04B95330   5.913   2.410   7.940
  1388G11  C03M95331   6.273   2.113   7.990
  1388G11  C04A95332   6.043   2.367   7.930
  1388G11  C05H95333   5.947   2.540   7.734
  1388G11  C05G95334   5.921   2.629   7.625
  1388G11  C05F95335   5.817   2.719   7.613
  1388G11  C05E95336   5.773   2.771   7.492
  1388G11  C05L95337   5.826   2.781   7.359
  1388G11  C05K95338   5.958   2.747   7.322
  1388G11  C05J95339   6.055   2.675   7.402
  1388G11  C06695340   5.996   2.784   7.191
  1388G11  C06595341   5.905   2.846   7.101
  1388G11  C06495342   5.770   2.872   7.135
  1388G11  C06N95343   5.942   2.872   6.968
  1388G11  C06995344   6.077   2.854   6.925
  1388G11  C06P95345   6.111   2.861   6.789
  1388G11  C06R95346   6.237   2.824   6.738
  1388G11  C06B95347   6.328   2.774   6.826
  1388G11  C06S95348   6.458   2.745   6.780
  1388G11  C02G95349   6.555   2.688   6.872
  1388G11  C02F95350   6.674   2.640   6.819
  1388G11  C02795351   6.701   2.651   6.684
  1388G11  C02695352   6.813   2.591   6.636
  1388G11  C00E95353   6.843   2.590   6.500
  1388G11  C00D95354   6.952   2.515   6.453
  1388G11  C00C95355   6.970   2.518   6.322
  1388G11  C00B95356   6.883   2.564   6.226
  1388G11  C01595357   6.771   2.626   6.273
  1388G11  C07F95358   6.676   2.671   6.183
  1388G11  C07E95359   6.556   2.722   6.231
  1388G11  C06W95360   6.539   2.739   6.368
  1388G11  C06V95361   6.633   2.693   6.460
  1388G11  C06X95362   6.422   2.791   6.418
  1388G11  C07B95363   6.323   2.848   6.330
  1388G11  C07C95364   6.344   2.835   6.193
  1388G11  C0FU95365   6.250   2.882   6.101
  1388G11  C0F795366   6.263   2.863   5.964
  1388G11  C0F695367   6.170   2.910   5.882
  1388G11  C0F895368   6.190   2.904   5.745
  1388G11  C0F995369   6.097   2.955   5.655
  1388G11  C0FA95370   6.124   2.957   5.522
  1388G11  C0FZ95371   6.234   2.898   5.473
  1388G11  C0G095372   6.266   2.913   5.340
  1388G11  C0GD95373   6.199   3.006   5.251
  1388G11  C0FC95374   6.093   3.074   5.305
  1388G11  C0GH95375   6.026   3.179   5.236
  1388G11  C0EY95376   5.918   3.242   5.296
  1388G11  C0EX95377   5.857   3.346   5.228
  1388G11  C0EW95378   5.733   3.396   5.278
  1388G11  C0FR95379   5.673   3.508   5.215
  1388G11  H01D95380   5.587   3.560   5.253
  1388G11  C0FS95381   5.731   3.569   5.107
  1388G11  H01C95382   5.682   3.657   5.067
  1388G11  C0GJ95383   5.846   3.511   5.047
  1388G11  H01N95384   5.876   3.555   4.953
  1388G11  C0EV95385   5.677   3.347   5.394
  1388G11  C0FT95386   5.545   3.374   5.439
  1388G11  H01E95387   5.466   3.423   5.385
  1388G11  C0EU95388   5.754   3.259   5.474
  1388G11  C0ET95389   5.711   3.211   5.592
  1388G11  C0EI95390   5.775   3.124   5.674
  1388G11  C0F195391   5.900   3.076   5.622
  1388G11  C0F095392   5.940   3.102   5.491
  1388G11  C0EH95393   5.732   3.103   5.804
  1388G11  C0EG95394   5.600   3.126   5.847
  1388G11  C0EJ95395   5.828   3.052   5.890
  1388G11  C0F395396   5.954   3.007   5.840
  1388G11  C0EK95397   5.801   3.055   6.029
  1388G11  C0EL95398   5.668   3.083   6.076
  1388G11  C0EM95399   5.667   3.089   6.226
  1388G11  C0EN95400   5.784   3.084   6.301
  1388G11  C07I95401   5.754   3.085   6.435
  1388G11  C07495402   5.846   3.028   6.526
  1388G11  C07395403   5.797   2.996   6.651
  1388G11  C07295404   5.889   2.943   6.747
  1388G11  C07595405   5.967   2.991   6.478
  1388G11  C07695406   5.995   2.995   6.342
  1388G11  C07895407   6.112   2.941   6.290
  1388G11  C07G95408   6.054   2.925   6.567
  1388G11  C07095409   6.180   2.887   6.517
  1388G11  C07Z95410   5.614   3.075   6.451
  1388G11  C07795411   5.900   3.034   6.250
  1388G11  C0EO95412   5.909   3.027   6.112
  1388G11  C0F495413   6.032   2.974   6.063
  1388G11  C0EQ95414   5.589   3.256   5.641
  1388G11  C0FQ95415   5.906   3.399   5.105
  1388G11  C0GI95416   6.021   3.336   5.055
  1388G11  H01L95417   6.056   3.378   4.962
  1388G11  C0EZ95418   5.870   3.201   5.420
  1388G11  C0GG95419   6.081   3.225   5.117
  1388G11  C0GF95420   6.186   3.149   5.053
  1388G11  H01M95421   6.224   3.195   4.963
  1388G11  C0GE95422   6.240   3.043   5.124
  1388G11  H01K95423   6.332   3.000   5.087
  1388G11  O00J95424   6.375   2.857   5.289
  1388G11  C0GA95425   6.461   2.792   5.368
  1388G11  C0G995426   6.574   2.719   5.318
  1388G11  H01H95427   6.589   2.733   5.212
  1388G11  C0G895428   6.659   2.648   5.399
  1388G11  C0G795429   6.762   2.562   5.358
  1388G11  H01I95430   6.776   2.548   5.252
  1388G11  O00I95431   6.832   2.480   5.438
  1388G11  C0G695432   6.821   2.499   5.571
  1388G11  H01J95433   6.874   2.428   5.633
  1388G11  C02D95434   6.724   2.587   5.622
  1388G11  C02C95435   6.716   2.606   5.767
  1388G11  C01795436   6.820   2.559   5.858
  1388G11  C01695437   6.809   2.583   6.002
  1388G11  O00195438   6.931   2.492   5.818
  1388G11  C01895439   7.013   2.427   5.902
  1388G11  C00995440   7.009   2.449   6.041
  1388G11  C00895441   7.097   2.399   6.145
  1388G11  C00795442   7.211   2.307   6.146
  1388G11  C00695443   7.247   2.226   6.040
  1388G11  C00595444   7.353   2.127   6.044
  1388G11  C00495445   7.420   2.067   6.154
  1388G11  C00395446   7.397   2.080   6.300
  1388G11  C00295447   7.469   1.999   6.392
  1388G11  C00P95448   7.440   1.997   6.528
  1388G11  C00O95449   7.500   1.904   6.621
  1388G11  C00N95450   7.465   1.893   6.753
  1388G11  C01095451   7.525   1.798   6.837
  1388G11  C01195452   7.476   1.780   6.968
  1388G11  C01Q95453   7.528   1.682   7.052
  1388G11  C01U95454   7.640   1.612   7.013
  1388G11  C01295455   7.689   1.637   6.882
  1388G11  H00095456   7.777   1.586   6.845
  1388G11  C01V95457   7.691   1.525   7.111
  1388G11  H00795458   7.788   1.481   7.097
  1388G11  O00595459   7.621   1.488   7.228
  1388G11  C01W95460   7.501   1.542   7.245
  1388G11  C03195461   7.412   1.489   7.349
  1388G11  C03295462   7.279   1.539   7.356
  1388G11  H00A95463   7.195   1.507   7.416
  1388G11  C03395464   7.250   1.660   7.289
  1388G11  H00B95465   7.151   1.696   7.311
  1388G11  C01O95466   7.343   1.718   7.202
  1388G11  C01N95467   7.325   1.839   7.146
  1388G11  C01M95468   7.241   1.950   7.206
  1388G11  C01L95469   7.161   1.988   7.329
  1388G11  C01K95470   7.089   2.098   7.289
  1388G11  C01Y95471   6.996   2.172   7.358
  1388G11  C02I95472   6.950   2.127   7.476
  1388G11  C02N95473   6.838   2.183   7.534
  1388G11  C02M95474   6.789   2.123   7.655
  1388G11  C02L95475   6.855   2.013   7.715
  1388G11  C02K95476   6.974   1.967   7.660
  1388G11  C02U95477   7.042   1.863   7.724
  1388G11  C02V95478   6.984   1.792   7.833
  1388G11  C03H95479   7.039   1.667   7.883
  1388G11  H00C95480   7.129   1.616   7.852
  1388G11  C02W95481   7.162   1.816   7.676
  1388G11  C02X95482   7.196   1.865   7.549
  1388G11  C02Y95483   7.322   1.804   7.523
  1388G11  H00895484   7.394   1.827   7.446
  1388G11  C02Z95485   7.342   1.699   7.627
  1388G11  O00495486   7.426   1.611   7.624
  1388G11  O00395487   7.249   1.725   7.722
  1388G11  C02J95488   7.019   2.015   7.533
  1388G11  C01Z95489   6.943   2.279   7.287
  1388G11  C02095490   6.975   2.312   7.152
  1388G11  C01I95491   7.075   2.238   7.088
  1388G11  C01H95492   7.110   2.248   6.955
  1388G11  C00K95493   7.194   2.156   6.902
  1388G11  C01S95494   7.254   2.060   6.983
  1388G11  C01495495   7.332   1.961   6.938
  1388G11  C00J95496   7.222   2.166   6.772
  1388G11  C00I95497   7.160   2.253   6.690
  1388G11  C00H95498   7.067   2.345   6.746
  1388G11  C00G95499   6.996   2.432   6.668
  1388G11  C00S95500   7.199   2.265   6.561
  1388G11  C00T95501   7.135   2.362   6.488
  1388G11  C00U95502   7.161   2.363   6.354
  1388G11  C00R95503   7.288   2.176   6.501
  1388G11  C00L95504   7.315   2.078   6.720
  1388G11  C02895505   7.045   2.346   6.880
  1388G11  C02395506   6.938   2.416   6.935
  1388G11  C02495507   6.867   2.503   6.853
  1388G11  C02195508   6.905   2.399   7.070
  1388G11  C02295509   6.798   2.461   7.120
  1388G11  C02H95510   6.726   2.553   7.039
  1388G11  C03095511   6.610   2.610   7.087
  1388G11  C03495512   6.576   2.587   7.214
  1388G11  C02P95513   6.766   2.440   7.249
  1388G11  C02B95514   6.827   2.342   7.332
  1388G11  C01J95515   7.130   2.136   7.161
  1388G11  C01X95516   7.130   1.949   7.465
  1388G11  C01T95517   7.220   2.054   7.117
  1388G11  H00995518   7.444   1.409   7.414
  1388G11  C01P95519   7.457   1.650   7.165
  1388G11  C01R95520   7.379   1.862   7.019
  1388G11  C00Z95521   7.630   1.723   6.793
  1388G11  O00095522   7.666   1.730   6.655
  1388G11  C00M95523   7.371   1.981   6.804
  1388G11  C00Y95524   7.602   1.820   6.578
  1388G11  C01395525   7.633   1.830   6.445
  1388G11  H00195526   7.704   1.755   6.412
  1388G11  C00Q95527   7.346   2.082   6.585
  1388G11  C00195528   7.575   1.921   6.355
  1388G11  C00095529   7.608   1.923   6.219
  1388G11  H00695530   7.685   1.860   6.178
  1388G11  C00W95531   7.313   2.174   6.359
  1388G11  C01G95532   7.526   1.987   6.127
  1388G11  H00595533   7.566   1.981   6.026
  1388G11  C01C95534   7.373   2.095   5.903
  1388G11  H00295535   7.440   2.014   5.879
  1388G11  C01B95536   7.291   2.178   5.820
  1388G11  C01D95537   7.292   2.190   5.682
  1388G11  H00395538   7.371   2.141   5.627
  1388G11  C01E95539   7.203   2.272   5.625
  1388G11  H00495540   7.197   2.289   5.519
  1388G11  O00295541   7.106   2.348   5.701
  1388G11  C01A95542   7.207   2.255   5.904
  1388G11  C00V95543   7.242   2.276   6.283
  1388G11  C01995544   7.114   2.342   5.842
  1388G11  C02E95545   6.608   2.673   5.818
  1388G11  C0FX95546   6.516   2.728   5.731
  1388G11  C0FW95547   6.397   2.788   5.780
  1388G11  C0GB95548   6.533   2.719   5.594
  1388G11  C0G395549   6.592   2.692   5.958
  1388G11  C07H95550   6.477   2.755   6.008
  1388G11  C0GC95551   6.638   2.654   5.536
  1388G11  C0G295552   6.439   2.778   5.507
  1388G11  C0G195553   6.323   2.831   5.557
  1388G11  C0FB95554   6.051   3.043   5.440
  1388G11  C0F295555   5.985   3.009   5.707
  1388G11  C0FY95556   6.302   2.836   5.694
  1388G11  C0F595557   6.047   2.959   5.929
  1388G11  C0FV95558   6.377   2.798   5.917
  1388G11  C07995559   6.135   2.939   6.150
  1388G11  C07A95560   6.209   2.896   6.384
  1388G11  C06Y95561   6.390   2.790   6.555
  1388G11  C07D95562   6.461   2.771   6.143
  1388G11  C01F95563   6.694   2.651   6.046
  1388G11  C00A95564   6.903   2.531   6.091
  1388G11  C00X95565   7.076   2.441   6.273
  1388G11  C00F95566   7.034   2.441   6.537
  1388G11  C02995567   6.747   2.638   6.411
  1388G11  C02595568   6.891   2.509   6.717
  1388G11  C06U95569   6.608   2.706   6.597
  1388G11  C02A95570   6.759   2.572   6.907
  1388G11  C05Y95571   6.519   2.682   7.005
  1388G11  C05Z95572   6.392   2.710   7.046
  1388G11  C06095573   6.357   2.685   7.178
  1388G11  C06295574   6.224   2.705   7.228
  1388G11  C06T95575   6.486   2.747   6.647
  1388G11  C06A95576   6.293   2.762   6.962
  1388G11  C06Z95577   6.268   2.831   6.605
  1388G11  C06Q95578   6.018   2.916   6.702
  1388G11  C06895579   6.164   2.796   7.014
  1388G11  C06795580   6.127   2.766   7.149
  1388G11  C06395581   5.725   2.836   7.265
  1388G11  C06C95582   5.589   2.862   7.295
  1388G11  C06D95583   5.539   2.834   7.417
  1388G11  C06E95584   5.407   2.842   7.456
  1388G11  C07Q95585   5.317   2.885   7.370
  1388G11  C07P95586   5.363   2.916   7.240
  1388G11  C07T95587   5.272   2.975   7.149
  1388G11  C07U95588   5.313   3.001   7.019
  1388G11  C07V95589   5.218   3.036   6.926
  1388G11  C08495590   5.084   3.042   6.961
  1388G11  C08C95591   5.047   3.025   7.094
  1388G11  C08B95592   4.917   3.028   7.129
  1388G11  C08A95593   4.879   3.003   7.261
  1388G11  C08995594   4.962   2.956   7.355
  1388G11  C08895595   4.915   2.912   7.481
  1388G11  C08795596   5.004   2.864   7.577
  1388G11  C08695597   5.139   2.853   7.537
  1388G11  C08X95598   4.779   2.923   7.517
  1388G11  C08T95599   4.687   2.956   7.407
  1388G11  C08D95600   5.094   2.947   7.318
  1388G11  C08U95601   4.744   2.988   7.288
  1388G11  C08V95602   4.649   3.007   7.189
  1388G11  C0CY95603   4.681   3.034   7.055
  1388G11  C0CX95604   4.577   3.042   6.967
  1388G11  C0CW95605   4.616   3.062   6.836
  1388G11  C0CV95606   4.751   3.067   6.803
  1388G11  C0D495607   4.851   3.059   6.901
  1388G11  C0CU95608   4.784   3.073   6.671
  1388G11  C0CT95609   4.691   3.059   6.567
  1388G11  C0CS95610   4.554   3.060   6.602
  1388G11  C0D695611   4.918   3.074   6.648
  1388G11  C0EC95612   5.019   3.063   6.739
  1388G11  C07X95613   5.157   3.054   6.701
  1388G11  C0DL95614   4.953   3.067   6.514
  1388G11  C0DK95615   5.086   3.057   6.479
  1388G11  C0DN95616   5.090   3.040   6.345
  1388G11  C0D895617   4.870   3.048   6.404
  1388G11  C08W95618   4.520   2.981   7.236
  1388G11  C0CQ95619   4.410   3.003   7.146
  1388G11  C09395620   4.820   3.046   7.032
  1388G11  C09295621   4.985   3.057   6.871
  1388G11  C08595622   5.139   2.986   7.189
  1388G11  C07S95623   5.187   2.896   7.411
  1388G11  C06F95624   5.362   2.792   7.581
  1388G11  C07O95625   5.497   2.904   7.204
  1388G11  C07N95626   5.543   2.940   7.076
  1388G11  C05D95627   5.633   2.802   7.508
  1388G11  C05C95628   5.591   2.760   7.633
  1388G11  C05N95629   5.695   2.699   7.696
  1388G11  C05M95630   6.027   2.619   7.531
  1388G11  C05I95631   6.188   2.649   7.353
  1388G11  C06195632   6.451   2.622   7.260
  1388G11  C02Q95633   6.660   2.506   7.289
  1388G11  C02O95634   6.787   2.302   7.461
  1388G11  C03Q95635   6.469   2.430   7.567
  1388G11  C03O95636   6.337   2.318   7.729
  1388G11  C03L95637   6.400   2.055   7.959
  1388G11  C02S95638   6.665   2.155   7.714
  1388G11  C02T95639   6.803   1.942   7.828
  1388G11  C03K95640   6.474   1.944   8.025
  1388G11  C03I95641   6.866   1.836   7.887
  1388G11  C03G95642   6.974   1.592   7.982
  1388G11  H00D95643   7.011   1.503   8.031
  1388G11  C03J95644   6.605   1.706   8.120
  1388G11  C03W95645   6.469   1.504   8.271
  1388G11  C04I95646   6.285   1.642   8.295
  1388G11  C04K95647   6.027   1.703   8.374
  1388G11  C04N95648   5.897   1.745   8.398
  1388G11  C04X95649   5.708   1.897   8.373
  1388G11  C05095650   5.510   2.045   8.324
  1388G11  C05W95651   5.685   2.202   8.171
  1388G11  C05S95652   5.228   2.368   8.090
  1388G11  C05R95653   5.567   2.409   7.989
  1388G11  C05O95654   5.658   2.607   7.799
  1388G11  C05B95655   5.450   2.734   7.662
  1388G11  C05A95656   5.258   2.527   7.895
  1388G11  C07R95657   5.226   2.794   7.624
  1388G11  C08N95658   4.960   2.809   7.702
  1388G11  C08M95659   4.825   2.837   7.738
  1388G11  C08L95660   4.781   2.796   7.867
  1388G11  C09195661   5.167   2.483   7.997
  1388G11  C09K95662   4.874   2.453   8.144
  1388G11  H00M95663   4.902   2.353   8.114
  1388G11  C08K95664   4.873   2.722   7.948
  1388G11  C09J95665   4.744   2.498   8.180
  1388G11  C09I95666   4.614   2.434   8.165
  1388G11  C09L95667   4.571   2.306   8.196
  1388G11  H00N95668   4.636   2.225   8.226
  1388G11  C09Q95669   4.440   2.283   8.182
  1388G11  H00O95670   4.413   2.181   8.208
  1388G11  O00B95671   4.349   2.369   8.126
  1388G11  C09G95672   4.391   2.495   8.085
  1388G11  C09F95673   4.289   2.577   8.030
  1388G11  O00A95674   4.175   2.511   8.031
  1388G11  C09P95675   4.067   2.577   7.983
  1388G11  H00P95676   3.980   2.576   8.046
  1388G11  C09O95677   4.082   2.650   7.863
  1388G11  C09D95678   4.203   2.731   7.861
  1388G11  C09C95679   4.236   2.832   7.762
  1388G11  C09N95680   4.182   2.864   7.633
  1388G11  C09T95681   4.080   2.788   7.568
  1388G11  C09S95682   3.991   2.691   7.631
  1388G11  C0CP95683   3.898   2.671   7.530
  1388G11  C0CN95684   3.919   2.745   7.412
  1388G11  C0CO95685   3.838   2.710   7.302
  1388G11  H01495686   3.855   2.752   7.204
  1388G11  C0CZ95687   3.736   2.612   7.316
  1388G11  H01595688   3.674   2.591   7.229
  1388G11  C0D095689   3.719   2.538   7.443
  1388G11  C0G595690   3.617   2.440   7.471
  1388G11  H01F95691   3.538   2.415   7.402
  1388G11  C0G495692   3.614   2.373   7.589
  1388G11  H01G95693   3.544   2.291   7.596
  1388G11  O00H95694   3.718   2.389   7.678
  1388G11  C0D295695   3.799   2.497   7.671
  1388G11  C09V95696   3.888   2.540   7.776
  1388G11  H00Q95697   3.874   2.478   7.863
  1388G11  C0D195698   3.809   2.564   7.551
  1388G11  C09R95699   3.989   2.639   7.763
  1388G11  C09H95700   4.525   2.526   8.102
  1388G11  C09E95701   4.311   2.691   7.947
  1388G11  C09B95702   4.340   2.923   7.772
  1388G11  C08Z95703   4.646   2.821   7.897
  1388G11  C08O95704   4.727   2.894   7.647
  1388G11  C09A95705   4.353   3.009   7.661
  1388G11  C08S95706   4.544   2.954   7.375
  1388G11  C09995707   4.254   2.969   7.572
  1388G11  C09U95708   4.033   2.828   7.434
  1388G11  C0BO95709   3.942   3.016   7.015
  1388G11  C0CL95710   4.279   2.978   7.185
  1388G11  C0D395711   4.447   3.027   7.010
  1388G11  C0D595712   4.517   3.054   6.735
  1388G11  C0BR95713   4.118   3.029   6.848
  1388G11  C0BQ95714   3.984   3.026   6.878
  1388G11  C0BL95715   3.716   2.982   6.946
  1388G11  C0AF95716   3.528   2.971   6.752
  1388G11  C0BH95717   3.819   3.054   6.549
  1388G11  C0BG95718   3.849   3.050   6.416
  1388G11  C0BD95719   3.620   3.045   6.353
  1388G11  C0AG95720   3.431   2.977   6.661
  1388G11  C0AI95721   3.215   2.884   6.595
  1388G11  C0AV95722   3.084   2.766   6.391
  1388G11  C0BB95723   3.293   3.002   6.209
  1388G11  O00C95724   3.052   2.752   6.151
  1388G11  C0BC95725   3.304   3.001   6.068
  1388G11  C0B995726   3.519   3.032   6.257
  1388G11  O00E95727   3.724   2.976   5.966
  1388G11  C0CA95728   3.846   2.939   5.930
  1388G11  O00F95729   3.864   2.894   5.818
  1388G11  C0BF95730   3.755   3.042   6.320
  1388G11  C0C595731   3.948   2.962   6.028
  1388G11  C0C495732   4.085   2.952   5.996
  1388G11  H01195733   4.104   2.926   5.893
  1388G11  C0C895734   3.985   3.043   6.382
  1388G11  C0C295735   4.188   2.975   6.092
  1388G11  C0C395736   4.323   2.961   6.067
  1388G11  C0DY95737   4.378   2.942   5.942
  1388G11  H01695738   4.333   2.932   5.844
  1388G11  C0DX95739   4.519   2.973   5.964
  1388G11  C0DW95740   4.585   3.048   5.864
  1388G11  C0BY95741   4.224   3.052   6.446
  1388G11  C0DB95742   4.422   2.996   6.159
  1388G11  C0CC95743   4.459   3.055   6.504
  1388G11  C0D795744   4.728   3.053   6.429
  1388G11  C0DZ95745   4.547   2.997   6.105
  1388G11  C0DM95746   4.959   3.031   6.294
  1388G11  C0DQ95747   4.815   3.059   5.970
  1388G11  C0DV95748   4.722   3.091   5.874
  1388G11  C0E095749   4.530   3.111   5.741
  1388G11  C0FO95750   4.742   3.185   5.453
  1388G11  C0E395751   4.475   3.033   5.631
  1388G11  H01795752   4.414   2.945   5.644
  1388G11  C0GV95753   4.695   3.097   5.357
  1388G11  C0ES95754   4.882   3.185   5.471
  1388G11  C0GQ95755   4.967   3.096   5.123
  1388G11  C0FJ95756   5.316   3.120   5.247
  1388G11  C0ED95757   5.172   3.175   5.491
  1388G11  C0ER95758   5.500   3.318   5.553
  1388G11  C0EP95759   5.520   3.182   5.740
  1388G11  C0E695760   5.128   3.143   5.743
  1388G11  C0DE95761   5.182   3.062   6.042
  1388G11  C0EA95762   5.563   3.098   5.977
  1388G11  C0DF95763   5.251   3.031   6.158
  1388G11  C08095764   5.562   3.104   6.319
  1388G11  C0DO95765   5.212   3.044   6.294
  1388G11  C0DJ95766   5.192   3.063   6.573
  1388G11  C07K95767   5.567   3.042   6.585
  1388G11  C07W95768   5.258   3.037   6.793
  1388G11  C08395769   5.448   2.980   6.985
  1388G11  C07J95770   5.661   3.006   6.681
  1388G11  C06O95771   5.850   2.920   6.876
  1388G11  C06M95772   5.676   2.921   7.044
  1398G11  C07195773   7.697   8.279  14.729
  1398G11  C07L95774   7.646   8.260  14.854
  1398G11  C07M95775   7.694   8.332  14.964
  1398G11  C07Y95776   7.661   8.302  15.094
  1398G11  C08195777   7.574   8.199  15.131
  1398G11  C08295778   7.545   8.175  15.270
  1398G11  C0DI95779   7.472   8.063  15.332
  1398G11  C0DH95780   7.392   7.961  15.279
  1398G11  C0DG95781   7.341   7.876  15.387
  1398G11  C0E995782   7.208   7.818  15.405
  1398G11  C0E895783   7.175   7.848  15.549
  1398G11  C0E795784   7.060   7.811  15.628
  1398G11  C0EB95785   6.947   7.733  15.561
  1398G11  C0EF95786   6.814   7.702  15.614
  1398G11  C0EE95787   6.749   7.764  15.723
  1398G11  C0FD95788   6.611   7.792  15.702
  1398G11  C0FE95789   6.541   7.797  15.576
  1398G11  H01B95790   6.604   7.778  15.490
  1398G11  C0FF95791   6.408   7.818  15.559
  1398G11  H01A95792   6.361   7.810  15.462
  1398G11  C0FG95793   6.336   7.845  15.677
  1398G11  H01895794   6.231   7.869  15.684
  1398G11  C0FH95795   6.394   7.864  15.797
  1398G11  C0FI95796   6.322   7.892  15.916
  1398G11  H01995797   6.215   7.909  15.911
  1398G11  O00K95798   6.378   7.907  16.037
  1398G11  C0FL95799   6.508   7.881  16.047
  1398G11  C0FK95800   6.593   7.848  15.937
  1398G11  C0FM95801   6.729   7.817  15.955
  1398G11  C0FN95802   6.779   7.821  16.091
  1398G11  C0FP95803   6.693   7.852  16.194
  1398G11  C0GO95804   6.732   7.867  16.327
  1398G11  C0GN95805   6.660   7.928  16.430
  1398G11  C0GR95806   6.527   7.947  16.405
  1398G11  C0GS95807   6.450   8.013  16.498
  1398G11  H01Q95808   6.344   8.033  16.486
  1398G11  C0GT95809   6.500   8.055  16.621
  1398G11  H01O95810   6.433   8.102  16.691
  1398G11  C0GU95811   6.640   8.037  16.645
  1398G11  H01P95812   6.688   8.074  16.734
  1398G11  O00L95813   6.475   7.915  16.279
  1398G11  C0GM95814   6.723   7.973  16.549
  1398G11  C0GL95815   6.863   7.959  16.551
  1398G11  H01R95816   6.928   8.006  16.624
  1398G11  C0GK95817   6.931   7.882  16.456
  1398G11  C0GP95818   7.068   7.862  16.426
  1398G11  C0E295819   7.078   7.777  16.316
  1398G11  C0E195820   7.203   7.805  16.253
  1398G11  C0DU95821   7.211   7.847  16.118
  1398G11  C0DT95822   7.123   7.813  16.007
  1398G11  C0E495823   6.993   7.783  16.007
  1398G11  C0E595824   6.946   7.784  15.872
  1398G11  C0DS95825   7.150   7.856  15.878
  1398G11  C0DR95826   7.267   7.944  15.868
  1398G11  C0DD95827   7.309   7.998  15.747
  1398G11  C0DC95828   7.418   8.094  15.792
  1398G11  C0DP95829   7.438   8.103  15.936
  1398G11  C0DA95830   7.512   8.206  16.008
  1398G11  C0D995831   7.600   8.322  15.967
  1398G11  C0CR95832   7.660   8.410  16.063
  1398G11  C0C095833   7.632   8.399  16.198
  1398G11  C0BZ95834   7.674   8.483  16.297
  1398G11  C0C195835   7.645   8.465  16.436
  1398G11  C0C795836   7.701   8.543  16.536
  1398G11  C0C695837   7.672   8.518  16.674
  1398G11  C0C995838   7.709   8.607  16.772
  1398G11  C0B895839   7.691   8.579  16.908
  1398G11  C0B795840   7.702   8.684  17.004
  1398G11  C0B695841   7.682   8.689  17.147
  1398G11  C0B595842   7.711   8.573  17.228
  1398G11  H00Z95843   7.719   8.474  17.187
  1398G11  C0B495844   7.748   8.623  17.359
  1398G11  H01095845   7.786   8.557  17.436
  1398G11  C0B395846   7.745   8.766  17.356
  1398G11  C0AP95847   7.818   8.886  17.397
  1398G11  C0AQ95848   7.816   8.967  17.279
  1398G11  C0AR95849   7.907   9.067  17.250
  1398G11  C0AS95850   7.907   9.097  17.120
  1398G11  C0AT95851   7.857   9.021  17.019
  1398G11  C0BA95852   7.772   8.918  17.047
  1398G11  C0AU95853   7.902   9.027  16.890
  1398G11  C0BE95854   7.863   8.937  16.793
  1398G11  C0BI95855   7.916   8.949  16.665
  1398G11  C0BJ95856   8.007   9.048  16.632
  1398G11  C0BK95857   8.058   9.062  16.506
  1398G11  C0BW95858   8.008   8.982  16.404
  1398G11  C0BV95859   7.925   8.872  16.438
  1398G11  C0BU95860   7.884   8.784  16.338
  1398G11  C0BX95861   7.800   8.677  16.365
  1398G11  C0BT95862   7.929   8.800  16.205
  1398G11  C0CD95863   7.882   8.711  16.105
  1398G11  C0CB95864   7.792   8.608  16.137
  1398G11  C0CE95865   7.920   8.736  15.975
  1398G11  C0CK95866   8.010   8.841  15.943
  1398G11  C0BS95867   8.065   8.921  16.041
  1398G11  C0CJ95868   8.157   9.024  16.012
  1398G11  C0BP95869   8.208   9.100  16.116
  1398G11  C0CI95870   8.318   9.184  16.091
  1398G11  C0CH95871   8.356   9.271  16.196
  1398G11  H01295872   8.438   9.334  16.164
  1398G11  C0BN95873   8.306   9.259  16.325
  1398G11  C0CG95874   8.366   9.331  16.427
  1398G11  C0CF95875   8.477   9.420  16.406
  1398G11  H01395876   8.524   9.439  16.311
  1398G11  O00G95877   8.531   9.505  16.504
  1398G11  C0AA95878   8.496   9.473  16.629
  1398G11  C0A995879   8.556   9.552  16.730
  1398G11  H00U95880   8.633   9.621  16.701
  1398G11  C0A895881   8.531   9.517  16.863
  1398G11  H00V95882   8.597   9.579  16.922
  1398G11  C0A795883   8.423   9.431  16.902
  1398G11  C0A695884   8.345   9.369  16.797
  1398G11  C0A595885   8.229   9.293  16.819
  1398G11  C0A495886   8.168   9.276  16.952
  1398G11  C0A395887   8.199   9.308  17.091
  1398G11  C0A295888   8.325   9.349  17.134
  1398G11  C0A195889   8.370   9.350  17.267
  1398G11  C0A095890   8.323   9.298  17.398
  1398G11  C09Z95891   8.413   9.318  17.504
  1398G11  C09Y95892   8.384   9.269  17.635
  1398G11  H00Y95893   8.451   9.285  17.718
  1398G11  C09X95894   8.277   9.186  17.652
  1398G11  C09W95895   8.254   9.129  17.782
  1398G11  H00R95896   8.320   9.164  17.861
  1398G11  C0AX95897   8.159   9.028  17.806
  1398G11  H00S95898   8.135   8.983  17.902
  1398G11  C0AW95899   8.083   8.993  17.697
  1398G11  H00T95900   8.005   8.919  17.707
  1398G11  C0AN95901   8.091   9.058  17.573
  1398G11  C0AO95902   8.002   9.025  17.470
  1398G11  C0AM95903   8.193   9.153  17.547
  1398G11  C0B295904   8.539   9.388  17.499
  1398G11  O00D95905   8.613   9.402  17.595
  1398G11  C0B195906   8.570   9.445  17.374
  1398G11  H00W95907   8.658   9.507  17.373
  1398G11  C0AL95908   8.209   9.212  17.418
  1398G11  C0AK95909   8.111   9.184  17.317
  1398G11  C0B095910   8.492   9.419  17.263
  1398G11  C0AZ95911   8.535   9.446  17.132
  1398G11  H00X95912   8.625   9.495  17.097
  1398G11  C0AJ95913   8.112   9.230  17.179
  1398G11  C0AH95914   8.046   9.209  16.957
  1398G11  C0AE95915   8.159   9.226  16.712
  1398G11  C0AD95916   8.216   9.231  16.586
  1398G11  C0AY95917   8.424   9.405  17.048
  1398G11  C0AB95918   8.387   9.380  16.665
  1398G11  C0AC95919   8.322   9.316  16.559
  1398G11  C0BM95920   8.202   9.172  16.347
  1398G11  C0CM95921   8.378   9.185  15.963
  1398G11  C09M95922   8.301   9.143  15.849
  1398G11  C09895923   8.337   9.211  15.724
  1398G11  C08R95924   8.303   9.177  15.583
  1398G11  C08Q95925   8.352   9.266  15.483
  1398G11  C08P95926   8.402   9.251  15.350
  1398G11  C08Y95927   8.510   9.333  15.316
  1398G11  C09795928   8.588   9.400  15.409
  1398G11  C09695929   8.717   9.392  15.375
  1398G11  C09095930   8.721   9.374  15.239
  1398G11  C09595931   8.836   9.335  15.159
  1398G11  C09495932   8.827   9.317  15.016
  1398G11  C08J95933   8.724   9.302  14.921
  1398G11  C08I95934   8.776   9.225  14.811
  1398G11  C08H95935   8.663   9.154  14.752
  1398G11  C08G95936   8.561   9.151  14.859
  1398G11  C08F95937   8.431   9.093  14.879
  1398G11  C08E95938   8.364   9.031  14.771
  1398G11  C05995939   8.381   9.056  14.630
  1398G11  C05895940   8.300   8.995  14.533
  1398G11  C05795941   8.316   9.006  14.393
  1398G11  C05695942   8.427   9.088  14.349
  1398G11  C05595943   8.512   9.149  14.438
  1398G11  C05495944   8.631   9.184  14.379
  1398G11  C05395945   8.634   9.116  14.249
  1398G11  C05295946   8.742   9.100  14.160
  1398G11  C05195947   8.879   9.150  14.189
  1398G11  C05U95948   8.926   9.202  14.320
  1398G11  C05T95949   8.864   9.209  14.454
  1398G11  C06K95950   8.961   9.283  14.536
  1398G11  H00J95951   8.934   9.300  14.640
  1398G11  C06L95952   9.079   9.311  14.461
  1398G11  H00I95953   9.167   9.363  14.495
  1398G11  C05V95954   9.056   9.264  14.327
  1398G11  C06J95955   9.137   9.273  14.217
  1398G11  H00K95956   9.226   9.333  14.226
  1398G11  C05X95957   9.110   9.206  14.102
  1398G11  C06I95958   9.192   9.207  13.986
  1398G11  H00L95959   9.283   9.259  14.009
  1398G11  C04Z95960   9.175   9.136  13.868
  1398G11  C06H95961   9.270   9.134  13.757
  1398G11  H00H95962   9.360   9.193  13.760
  1398G11  C04Y95963   9.238   9.053  13.642
  1398G11  C06G95964   9.330   9.046  13.534
  1398G11  O00995965   9.433   9.117  13.520
  1398G11  O00895966   9.305   8.953  13.427
  1398G11  C04P95967   9.191   8.880  13.426
  1398G11  C04J95968   9.157   8.791  13.316
  1398G11  C04Q95969   9.226   8.765  13.199
  1398G11  H00E95970   9.317   8.820  13.182
  1398G11  C04M95971   9.186   8.660  13.104
  1398G11  C04R95972   9.252   8.634  12.983
  1398G11  H00F95973   9.332   8.697  12.946
  1398G11  C04S95974   9.221   8.527  12.908
  1398G11  H00G95975   9.281   8.505  12.821
  1398G11  O00795976   9.112   8.449  12.930
  1398G11  C03V95977   9.038   8.484  13.045
  1398G11  C03U95978   8.922   8.413  13.072
  1398G11  O00695979   8.902   8.303  12.995
  1398G11  C03F95980   8.812   8.210  13.032
  1398G11  C03E95981   8.722   8.232  13.143
  1398G11  C03D95982   8.733   8.353  13.213
  1398G11  C03C95983   8.644   8.381  13.317
  1398G11  C03B95984   8.544   8.287  13.336
  1398G11  C03A95985   8.442   8.314  13.428
  1398G11  C03995986   8.443   8.428  13.513
  1398G11  C03895987   8.318   8.414  13.583
  1398G11  C03795988   8.255   8.300  13.529
  1398G11  C03695989   8.132   8.262  13.571
  1398G11  C02R95990   8.071   8.143  13.549
  1398G11  C03595991   7.966   8.147  13.640
  1398G11  C03R95992   7.962   8.259  13.719
  1398G11  C03S95993   7.911   8.262  13.848
  1398G11  C04995994   7.961   8.362  13.926
  1398G11  C04895995   8.066   8.450  13.874
  1398G11  C03P95996   8.139   8.429  13.750
  1398G11  C04795997   8.102   8.554  13.960
  1398G11  C04695998   8.188   8.661  13.947
  1398G11  C04595999   8.281   8.689  13.844
  1398G11  C03T96000   8.318   8.604  13.734
  1398G11  C04496001   8.441   8.660  13.682
  1398G11  C04396002   8.463   8.778  13.750
  1398G11  C04296003   8.598   8.818  13.743
  1398G11  C04196004   8.644   8.736  13.629
  1398G11  C04096005   8.780   8.736  13.583
  1398G11  C03Z96006   8.828   8.676  13.467
  1398G11  C04H96007   8.954   8.737  13.438
  1398G11  C04G96008   8.984   8.823  13.535
  1398G11  C03N96009   8.777   8.571  13.375
  1398G11  C03Y96010   8.867   8.544  13.269
  1398G11  C03X96011   8.991   8.614  13.241
  1398G11  C04F96012   8.883   8.833  13.625
  1398G11  C04E96013   8.895   8.918  13.737
  1398G11  C04O96014   9.018   8.988  13.744
  1398G11  C04D96015   8.799   8.950  13.830
  1398G11  C04V96016   8.835   9.020  13.946
  1398G11  C04W96017   8.963   9.078  13.969
  1398G11  C04C96018   8.662   8.922  13.830
  1398G11  C04L96019   8.615   8.977  13.956
  1398G11  C04U96020   8.477   8.966  14.004
  1398G11  C05Q96021   8.435   9.007  14.133
  1398G11  C05P96022   8.313   8.945  14.161
  1398G11  C04T96023   8.286   8.850  14.065
  1398G11  C04B96024   8.377   8.872  13.965
  1398G11  C03M96025   8.548   8.628  13.596
  1398G11  C04A96026   8.374   8.789  13.856
  1398G11  C05H96027   8.187   8.742  14.059
  1398G11  C05G96028   8.093   8.686  14.145
  1398G11  C05F96029   8.078   8.732  14.277
  1398G11  C05E96030   8.013   8.667  14.380
  1398G11  C05L96031   7.943   8.546  14.402
  1398G11  C05K96032   7.911   8.455  14.291
  1398G11  C05J96033   7.952   8.468  14.152
  1398G11  C06696034   7.825   8.343  14.330
  1398G11  C06596035   7.783   8.321  14.462
  1398G11  C06496036   7.824   8.408  14.565
  1398G11  C06N96037   7.696   8.216  14.494
  1398G11  C06996038   7.660   8.120  14.397
  1398G11  C06P96039   7.582   8.011  14.434
  1398G11  C06R96040   7.548   7.907  14.343
  1398G11  C06B96041   7.603   7.916  14.218
  1398G11  C06S96042   7.587   7.806  14.128
  1398G11  C02G96043   7.635   7.812  13.996
  1398G11  C02F96044   7.614   7.708  13.908
  1398G11  C02796045   7.552   7.588  13.948
  1398G11  C02696046   7.539   7.482  13.861
  1398G11  C00E96047   7.477   7.368  13.914
  1398G11  C00D96048   7.481   7.260  13.830
  1398G11  C00C96049   7.427   7.147  13.878
  1398G11  C00B96050   7.373   7.128  14.004
  1398G11  C01596051   7.363   7.242  14.082
  1398G11  C07F96052   7.310   7.236  14.207
  1398G11  C07E96053   7.309   7.352  14.288
  1398G11  C06W96054   7.381   7.464  14.249
  1398G11  C06V96055   7.434   7.473  14.121
  1398G11  C06X96056   7.397   7.575  14.335
  1398G11  C07B96057   7.338   7.567  14.460
  1398G11  C07C96058   7.269   7.455  14.496
  1398G11  C0FU96059   7.206   7.456  14.618
  1398G11  C0F796060   7.140   7.341  14.661
  1398G11  C0F696061   7.086   7.339  14.795
  1398G11  C0F896062   7.015   7.230  14.831
  1398G11  C0F996063   6.941   7.239  14.950
  1398G11  C0FA96064   6.863   7.126  14.991
  1398G11  C0FZ96065   6.861   7.014  14.908
  1398G11  C0G096066   6.787   6.898  14.947
  1398G11  C0GD96067   6.706   6.904  15.061
  1398G11  C0FC96068   6.704   7.024  15.143
  1398G11  C0GH96069   6.612   7.040  15.248
  1398G11  C0EY96070   6.610   7.159  15.326
  1398G11  C0EX96071   6.522   7.175  15.433
  1398G11  C0EW96072   6.536   7.291  15.514
  1398G11  C0FR96073   6.442   7.306  15.620
  1398G11  H01D96074   6.450   7.384  15.694
  1398G11  C0FS96075   6.333   7.221  15.630
  1398G11  H01C96076   6.259   7.234  15.708
  1398G11  C0GJ96077   6.322   7.108  15.551
  1398G11  H01N96078   6.242   7.035  15.556
  1398G11  C0EV96079   6.637   7.383  15.491
  1398G11  C0FT96080   6.654   7.497  15.581
  1398G11  H01E96081   6.599   7.522  15.670
  1398G11  C0EU96082   6.719   7.370  15.374
  1398G11  C0ET96083   6.818   7.461  15.347
  1398G11  C0EI96084   6.899   7.460  15.238
  1398G11  C0F196085   6.881   7.348  15.154
  1398G11  C0F096086   6.790   7.249  15.183
  1398G11  C0EH96087   7.001   7.560  15.220
  1398G11  C0EG96088   7.035   7.653  15.326
  1398G11  C0EJ96089   7.057   7.565  15.091
  1398G11  C0F396090   7.034   7.452  14.996
  1398G11  C0EK96091   7.144   7.670  15.059
  1398G11  C0EL96092   7.179   7.768  15.157
  1398G11  C0EM96093   7.257   7.870  15.100
  1398G11  C0EN96094   7.281   7.867  14.962
  1398G11  C07I96095   7.369   7.970  14.928
  1398G11  C07496096   7.427   7.978  14.799
  1398G11  C07396097   7.510   8.083  14.780
  1398G11  C07296098   7.564   8.099  14.652
  1398G11  C07596099   7.400   7.877  14.710
  1398G11  C07696100   7.323   7.769  14.754
  1398G11  C07896101   7.300   7.667  14.668
  1398G11  C07G96102   7.448   7.891  14.590
  1398G11  C07096103   7.425   7.789  14.504
  1398G11  C07Z96104   7.404   8.045  15.041
  1398G11  C07796105   7.259   7.767  14.876
  1398G11  C0EO96106   7.189   7.665  14.927
  1398G11  C0F496107   7.170   7.555  14.837
  1398G11  C0EQ96108   6.844   7.561  15.444
  1398G11  C0FQ96109   6.421   7.079  15.453
  1398G11  C0GI96110   6.426   6.963  15.371
  1398G11  H01L96111   6.349   6.892  15.394
  1398G11  C0EZ96112   6.709   7.257  15.297
  1398G11  C0GG96113   6.521   6.933  15.272
  1398G11  C0GF96114   6.529   6.814  15.198
  1398G11  H01M96115   6.463   6.731  15.220
  1398G11  C0GE96116   6.630   6.795  15.109
  1398G11  H01K96117   6.635   6.699  15.060
  1398G11  O00J96118   6.805   6.779  14.880
  1398G11  C0GA96119   6.889   6.770  14.774
  1398G11  C0G996120   6.914   6.646  14.712
  1398G11  H01H96121   6.871   6.556  14.753
  1398G11  C0G896122   6.994   6.636  14.597
  1398G11  C0G796123   7.033   6.514  14.537
  1398G11  H01I96124   7.000   6.425  14.588
  1398G11  O00I96125   7.114   6.498  14.428
  1398G11  C0G696126   7.148   6.615  14.362
  1398G11  H01J96127   7.196   6.595  14.267
  1398G11  C02D96128   7.119   6.749  14.420
  1398G11  C02C96129   7.163   6.867  14.361
  1398G11  C01796130   7.227   6.875  14.234
  1398G11  C01696131   7.271   6.998  14.182
  1398G11  O00196132   7.255   6.765  14.165
  1398G11  C01896133   7.331   6.767  14.050
  1398G11  C00996134   7.358   6.885  13.983
  1398G11  C00896135   7.421   6.905  13.850
  1398G11  C00796136   7.489   6.815  13.759
  1398G11  C00696137   7.504   6.675  13.777
  1398G11  C00596138   7.577   6.591  13.691
  1398G11  C00496139   7.652   6.626  13.573
  1398G11  C00396140   7.691   6.755  13.515
  1398G11  C00296141   7.796   6.753  13.415
  1398G11  C00P96142   7.855   6.874  13.369
  1398G11  C00O96143   7.965   6.865  13.287
  1398G11  C00N96144   8.039   6.981  13.261
  1398G11  C01096145   8.166   6.975  13.197
  1398G11  C01196146   8.247   7.090  13.193
  1398G11  C01Q96147   8.376   7.076  13.149
  1398G11  C01U96148   8.421   6.961  13.088
  1398G11  C01296149   8.336   6.849  13.086
  1398G11  H00096150   8.385   6.758  13.055
  1398G11  C01V96151   8.558   6.964  13.041
  1398G11  H00796152   8.600   6.889  12.975
  1398G11  O00596153   8.639   7.071  13.056
  1398G11  C01W96154   8.600   7.166  13.152
  1398G11  C03196155   8.691   7.249  13.212
  1398G11  C03296156   8.652   7.356  13.295
  1398G11  H00A96157   8.722   7.423  13.343
  1398G11  C03396158   8.514   7.375  13.313
  1398G11  H00B96159   8.478   7.461  13.368
  1398G11  C01O96160   8.419   7.294  13.243
  1398G11  C01N96161   8.285   7.323  13.239
  1398G11  C01M96162   8.219   7.455  13.242
  1398G11  C01L96163   8.249   7.600  13.257
  1398G11  C01K96164   8.126   7.664  13.287
  1398G11  C01Y96165   8.120   7.792  13.351
  1398G11  C02I96166   8.231   7.873  13.344
  1398G11  C02N96167   8.215   8.002  13.397
  1398G11  C02M96168   8.327   8.094  13.384
  1398G11  C02L96169   8.437   8.066  13.302
  1398G11  C02K96170   8.450   7.930  13.256
  1398G11  C02U96171   8.559   7.900  13.173
  1398G11  C02V96172   8.636   8.005  13.121
  1398G11  C03H96173   8.725   7.986  13.013
  1398G11  H00C96174   8.715   7.894  12.956
  1398G11  C02W96175   8.590   7.767  13.142
  1398G11  C02X96176   8.490   7.680  13.175
  1398G11  C02Y96177   8.530   7.567  13.102
  1398G11  H00896178   8.485   7.472  13.076
  1398G11  C02Z96179   8.664   7.591  13.040
  1398G11  O00496180   8.733   7.502  12.986
  1398G11  O00396181   8.697   7.712  13.075
  1398G11  C02J96182   8.349   7.830  13.278
  1398G11  C01Z96183   8.008   7.810  13.425
  1398G11  C02096184   7.909   7.710  13.446
  1398G11  C01I96185   7.914   7.591  13.373
  1398G11  C01H96186   7.846   7.476  13.408
  1398G11  C00K96187   7.890   7.352  13.369
  1398G11  C01S96188   8.001   7.339  13.294
  1398G11  C01496189   8.065   7.220  13.274
  1398G11  C00J96190   7.826   7.237  13.407
  1398G11  C00I96191   7.722   7.246  13.495
  1398G11  C00H96192   7.683   7.369  13.549
  1398G11  C00G96193   7.606   7.372  13.658
  1398G11  C00S96194   7.663   7.128  13.541
  1398G11  C00T96195   7.564   7.140  13.634
  1398G11  C00U96196   7.503   7.027  13.680
  1398G11  C00R96197   7.695   7.000  13.493
  1398G11  C00L96198   7.869   7.111  13.370
  1398G11  C02896199   7.750   7.482  13.509
  1398G11  C02396200   7.740   7.598  13.585
  1398G11  C02496201   7.663   7.604  13.699
  1398G11  C02196202   7.819   7.710  13.552
  1398G11  C02296203   7.827   7.820  13.635
  1398G11  C02H96204   7.744   7.823  13.747
  1398G11  C03096205   7.757   7.928  13.835
  1398G11  C03496206   7.829   8.040  13.801
  1398G11  C02P96207   7.907   7.928  13.606
  1398G11  C02B96208   7.999   7.926  13.497
  1398G11  C01J96209   8.024   7.577  13.283
  1398G11  C01X96210   8.366   7.690  13.239
  1398G11  C01T96211   8.074   7.448  13.259
  1398G11  H00996212   8.797   7.228  13.201
  1398G11  C01P96213   8.464   7.181  13.179
  1398G11  C01R96214   8.195   7.212  13.236
  1398G11  C00Z96215   8.204   6.852  13.144
  1398G11  O00096216   8.133   6.741  13.168
  1398G11  C00M96217   7.993   7.102  13.298
  1398G11  C00Y96218   8.022   6.749  13.243
  1398G11  C01396219   7.964   6.634  13.289
  1398G11  H00196220   8.001   6.536  13.262
  1398G11  C00Q96221   7.805   6.993  13.411
  1398G11  C00196222   7.855   6.630  13.378
  1398G11  C00096223   7.799   6.506  13.416
  1398G11  H00696224   7.826   6.413  13.369
  1398G11  C00W96225   7.644   6.883  13.551
  1398G11  C01G96226   7.694   6.504  13.506
  1398G11  H00596227   7.645   6.409  13.521
  1398G11  C01C96228   7.572   6.459  13.752
  1398G11  H00296229   7.618   6.370  13.712
  1398G11  C01B96230   7.498   6.471  13.876
  1398G11  C01D96231   7.482   6.376  13.982
  1398G11  H00396232   7.523   6.277  13.974
  1398G11  C01E96233   7.406   6.413  14.088
  1398G11  H00496234   7.389   6.344  14.170
  1398G11  O00296235   7.347   6.539  14.098
  1398G11  C01A96236   7.449   6.601  13.888
  1398G11  C00V96237   7.550   6.896  13.657
  1398G11  C01996238   7.376   6.638  14.008
  1398G11  C02E96239   7.146   6.987  14.432
  1398G11  C0FX96240   7.085   6.992  14.557
  1398G11  C0FW96241   7.073   7.115  14.628
  1398G11  C0GB96242   7.031   6.875  14.607
  1398G11  C0G396243   7.194   7.109  14.381
  1398G11  C07H96244   7.192   7.225  14.459
  1398G11  C0GC96245   7.045   6.751  14.539
  1398G11  C0G296246   6.958   6.885  14.725
  1398G11  C0G196247   6.942   7.004  14.791
  1398G11  C0FB96248   6.785   7.134  15.108
  1398G11  C0F296249   6.955   7.346  15.035
  1398G11  C0FY96250   7.011   7.115  14.752
  1398G11  C0F596251   7.096   7.446  14.875
  1398G11  C0FV96252   7.134   7.225  14.582
  1398G11  C07996253   7.226   7.558  14.707
  1398G11  C07A96254   7.349   7.680  14.543
  1398G11  C06Y96255   7.461   7.689  14.293
  1398G11  C07D96256   7.256   7.347  14.412
  1398G11  C01F96257   7.254   7.117  14.256
  1398G11  C00A96258   7.330   7.004  14.054
  1398G11  C00X96259   7.431   7.033  13.800
  1398G11  C00F96260   7.542   7.257  13.704
  1398G11  C02996261   7.423   7.364  14.040
  1398G11  C02596262   7.598   7.486  13.739
  1398G11  C06U96263   7.501   7.586  14.076
  1398G11  C02A96264   7.665   7.714  13.782
  1398G11  C05Y96265   7.705   7.927  13.961
  1398G11  C05Z96266   7.732   8.034  14.053
  1398G11  C06096267   7.808   8.145  14.018
  1398G11  C06296268   7.832   8.254  14.103
  1398G11  C06T96269   7.516   7.690  14.164
  1398G11  C06A96270   7.683   8.026  14.181
  1398G11  C06Z96271   7.475   7.799  14.379
  1398G11  C06Q96272   7.529   8.002  14.561
  1398G11  C06896273   7.707   8.130  14.272
  1398G11  C06796274   7.785   8.246  14.237
  1398G11  C06396275   7.898   8.520  14.536
  1398G11  C06C96276   7.945   8.599  14.644
  1398G11  C06D96277   8.022   8.711  14.628
  1398G11  C06E96278   8.086   8.780  14.732
  1398G11  C07Q96279   8.061   8.748  14.861
  1398G11  C07P96280   7.970   8.647  14.880
  1398G11  C07T96281   7.943   8.610  15.010
  1398G11  C07U96282   7.851   8.508  15.038
  1398G11  C07V96283   7.810   8.482  15.169
  1398G11  C08496284   7.863   8.557  15.274
  1398G11  C08C96285   7.961   8.654  15.247
  1398G11  C08B96286   8.019   8.724  15.348
  1398G11  C08A96287   8.119   8.816  15.316
  1398G11  C08996288   8.149   8.853  15.191
  1398G11  C08896289   8.245   8.961  15.171
  1398G11  C08796290   8.281   8.989  15.041
  1398G11  C08696291   8.228   8.918  14.937
  1398G11  C08X96292   8.286   9.043  15.276
  1398G11  C08T96293   8.242   9.009  15.412
  1398G11  C08D96294   8.091   8.782  15.090
  1398G11  C08U96295   8.158   8.898  15.419
  1398G11  C08V96296   8.113   8.878  15.548
  1398G11  C0CY96297   8.031   8.774  15.583
  1398G11  C0CX96298   7.999   8.766  15.713
  1398G11  C0CW96299   7.904   8.668  15.745
  1398G11  C0CV96300   7.853   8.590  15.644
  1398G11  C0D496301   7.884   8.609  15.509
  1398G11  C0CU96302   7.772   8.479  15.679
  1398G11  C0CT96303   7.729   8.454  15.812
  1398G11  C0CS96304   7.774   8.545  15.905
  1398G11  C0D696305   7.724   8.407  15.571
  1398G11  C0EC96306   7.750   8.426  15.436
  1398G11  C07X96307   7.694   8.354  15.330
  1398G11  C0DL96308   7.636   8.306  15.597
  1398G11  C0DK96309   7.584   8.230  15.496
  1398G11  C0DN96310   7.509   8.136  15.563
  1398G11  C0D896311   7.588   8.278  15.728
  1398G11  C08W96312   8.180   8.969  15.635
  1398G11  C0CQ96313   8.139   8.964  15.779
  1398G11  C09396314   7.977   8.707  15.476
  1398G11  C09296315   7.834   8.530  15.405
  1398G11  C08596316   7.996   8.684  15.115
  1398G11  C07S96317   8.128   8.818  14.963
  1398G11  C06F96318   8.180   8.877  14.701
  1398G11  C07O96319   7.912   8.572  14.777
  1398G11  C07N96320   7.827   8.466  14.800
  1398G11  C05D96321   8.050   8.741  14.498
  1398G11  C05C96322   8.134   8.840  14.472
  1398G11  C05N96323   8.157   8.842  14.336
  1398G11  C05M96324   8.050   8.566  14.098
  1398G11  C05I96325   7.915   8.365  14.061
  1398G11  C06196326   7.847   8.150  13.889
  1398G11  C02Q96327   7.893   8.037  13.679
  1398G11  C02O96328   8.091   8.026  13.468
  1398G11  C03Q96329   8.077   8.326  13.680
  1398G11  C03O96330   8.256   8.490  13.690
  1398G11  C03L96331   8.552   8.524  13.502
  1398G11  C02S96332   8.337   8.226  13.448
  1398G11  C02T96333   8.535   8.166  13.270
  1398G11  C03K96334   8.657   8.498  13.399
  1398G11  C03I96335   8.629   8.135  13.174
  1398G11  C03G96336   8.812   8.086  12.966
  1398G11  H00D96337   8.874   8.070  12.880
  1398G11  C03J96338   8.840   8.437  13.188
  1398G11  C03W96339   9.075   8.581  13.137
  1398G11  C04I96340   9.039   8.715  13.327
  1398G11  C04K96341   9.102   8.892  13.535
  1398G11  C04N96342   9.119   8.982  13.638
  1398G11  C04X96343   9.052   9.064  13.861
  1398G11  C05096344   8.980   9.150  14.089
  1398G11  C05W96345   8.724   9.042  14.029
  1398G11  C05S96346   8.721   9.174  14.488
  1398G11  C05R96347   8.498   9.077  14.232
  1398G11  C05O96348   8.255   8.933  14.290
  1398G11  C05B96349   8.207   8.913  14.569
  1398G11  C05A96350   8.503   9.114  14.572
  1398G11  C07R96351   8.253   8.948  14.804
  1398G11  C08N96352   8.381   9.082  15.013
  1398G11  C08M96353   8.430   9.157  15.118
  1398G11  C08L96354   8.543   9.242  15.087
  1398G11  C09196355   8.638   9.138  14.611
  1398G11  C09K96356   8.908   9.169  14.851
  1398G11  H00M96357   8.967   9.088  14.810
  1398G11  C08K96358   8.610   9.233  14.963
  1398G11  C09J96359   8.944   9.239  14.974
  1398G11  C09I96360   9.029   9.239  15.091
  1398G11  C09L96361   9.166   9.199  15.104
  1398G11  H00N96362   9.219   9.154  15.021
  1398G11  C09Q96363   9.228   9.215  15.221
  1398G11  H00O96364   9.327   9.175  15.231
  1398G11  O00B96365   9.163   9.259  15.335
  1398G11  C09G96366   9.034   9.307  15.327
  1398G11  C09F96367   8.969   9.348  15.448
  1398G11  O00A96368   9.053   9.330  15.552
  1398G11  C09P96369   9.017   9.389  15.666
  1398G11  H00P96370   9.083   9.466  15.702
  1398G11  C09O96371   8.885   9.362  15.715
  1398G11  C09D96372   8.785   9.371  15.615
  1398G11  C09C96373   8.637   9.371  15.637
  1398G11  C09N96374   8.549   9.348  15.748
  1398G11  C09T96375   8.603   9.276  15.862
  1398G11  C09S96376   8.742   9.264  15.903
  1398G11  C0CP96377   8.737   9.182  16.018
  1398G11  C0CN96378   8.611   9.135  16.057
  1398G11  C0CO96379   8.597   9.053  16.169
  1398G11  H01496380   8.503   9.013  16.202
  1398G11  C0CZ96381   8.718   9.016  16.229
  1398G11  H01596382   8.703   8.949  16.312
  1398G11  C0D096383   8.848   9.068  16.198
  1398G11  C0G596384   8.976   9.033  16.259
  1398G11  H01F96385   8.972   8.967  16.344
  1398G11  C0G496386   9.092   9.094  16.215
  1398G11  H01G96387   9.183   9.064  16.264
  1398G11  O00H96388   9.099   9.179  16.110
  1398G11  C0D296389   8.979   9.212  16.045
  1398G11  C09V96390   8.977   9.293  15.931
  1398G11  H00Q96391   9.080   9.318  15.910
  1398G11  C0D196392   8.856   9.157  16.086
  1398G11  C09R96393   8.865   9.313  15.847
  1398G11  C09H96394   8.964   9.300  15.204
  1398G11  C09E96395   8.827   9.378  15.471
  1398G11  C09B96396   8.548   9.391  15.536
  1398G11  C08Z96397   8.594   9.313  15.206
  1398G11  C08O96398   8.374   9.148  15.252
  1398G11  C09A96399   8.409   9.369  15.565
  1398G11  C08S96400   8.257   9.051  15.548
  1398G11  C09996401   8.414   9.332  15.701
  1398G11  C09U96402   8.523   9.203  15.961
  1398G11  C0BO96403   8.147   9.099  16.244
  1398G11  C0CL96404   8.194   9.047  15.877
  1398G11  C0D396405   8.052   8.859  15.810
  1398G11  C0D596406   7.868   8.645  15.877
  1398G11  C0BR96407   8.013   8.909  16.172
  1398G11  C0BQ96408   8.052   8.999  16.273
  1398G11  C0BL96409   8.158   9.159  16.477
  1398G11  C0AF96410   8.055   9.137  16.734
  1398G11  C0BH96411   7.878   8.859  16.565
  1398G11  C0BG96412   7.808   8.745  16.605
  1398G11  C0BD96413   7.783   8.830  16.829
  1398G11  C0AG96414   7.997   9.124  16.857
  1398G11  C0AI96415   8.010   9.182  17.092
  1398G11  C0AV96416   8.003   9.098  17.344
  1398G11  C0BB96417   7.736   8.903  17.181
  1398G11  O00C96418   7.912   8.920  17.490
  1398G11  C0BC96419   7.677   8.796  17.235
  1398G11  C0B996420   7.746   8.814  16.964
  1398G11  O00E96421   7.632   8.463  16.943
  1398G11  C0CA96422   7.588   8.369  16.850
  1398G11  O00F96423   7.540   8.266  16.895
  1398G11  C0BF96424   7.769   8.728  16.736
  1398G11  C0C596425   7.606   8.402  16.712
  1398G11  C0C496426   7.566   8.310  16.614
  1398G11  H01196427   7.517   8.221  16.650
  1398G11  C0C896428   7.773   8.654  16.503
  1398G11  C0C296429   7.580   8.343  16.479
  1398G11  C0C396430   7.533   8.263  16.370
  1398G11  C0DY96431   7.466   8.140  16.385
  1398G11  H01696432   7.435   8.088  16.475
  1398G11  C0DX96433   7.441   8.091  16.247
  1398G11  C0DW96434   7.345   7.983  16.230
  1398G11  C0BY96435   7.755   8.587  16.265
  1398G11  C0DB96436   7.554   8.294  16.236
  1398G11  C0CC96437   7.744   8.523  16.036
  1398G11  C0D796438   7.634   8.351  15.840
  1398G11  C0DZ96439   7.500   8.191  16.150
  1398G11  C0DM96440   7.502   8.166  15.701
  1398G11  C0DQ96441   7.341   7.994  15.978
  1398G11  C0DV96442   7.305   7.944  16.102
  1398G11  C0E096443   7.280   7.895  16.335
  1398G11  C0FO96444   6.952   7.780  16.259
  1398G11  C0E396445   7.189   7.948  16.434
  1398G11  H01796446   7.202   8.040  16.489
  1398G11  C0GV96447   6.859   7.820  16.353
  1398G11  C0ES96448   6.912   7.788  16.120
  1398G11  C0GQ96449   6.559   7.885  16.173
  1398G11  C0FJ96450   6.535   7.838  15.809
  1398G11  C0ED96451   6.810   7.789  15.847
  1398G11  C0ER96452   6.760   7.585  15.550
  1398G11  C0EP96453   6.952   7.643  15.439
  1398G11  C0E696454   7.053   7.814  15.782
  1398G11  C0DE96455   7.285   7.930  15.610
  1398G11  C0EA96456   7.140   7.747  15.295
  1398G11  C0DF96457   7.383   7.934  15.506
  1398G11  C08096458   7.343   7.976  15.151
  1398G11  C0DO96459   7.460   8.046  15.468
  1398G11  C0DJ96460   7.607   8.259  15.357
  1398G11  C07K96461   7.510   8.138  15.022
  1398G11  C07W96462   7.719   8.384  15.196
  1398G11  C08396463   7.790   8.436  14.936
  1398G11  C07J96464   7.556   8.158  14.888
  1398G11  C06O96465   7.652   8.201  14.625
  1398G11  C06M96466   7.782   8.386  14.698
  1408G11  C07196467  10.762   7.083   7.165
  1408G11  C07L96468  10.636   7.086   7.221
  1408G11  C07M96469  10.577   6.964   7.268
  1408G11  C07Y96470  10.441   6.963   7.295
  1408G11  C08196471  10.361   7.082   7.292
  1408G11  C08296472  10.220   7.067   7.301
  1408G11  C0DI96473  10.109   7.158   7.268
  1408G11  C0DH96474  10.105   7.299   7.246
  1408G11  C0DG96475   9.978   7.332   7.188
  1408G11  C0E996476   9.898   7.455   7.205
  1408G11  C0E896477   9.758   7.399   7.227
  1408G11  C0E796478   9.630   7.473   7.238
  1408G11  C0EB96479   9.623   7.616   7.257
  1408G11  C0EF96480   9.516   7.697   7.308
  1408G11  C0EE96481   9.389   7.663   7.358
  1408G11  C0FD96482   9.337   7.745   7.460
  1408G11  C0FE96483   9.410   7.812   7.558
  1408G11  H01B96484   9.515   7.791   7.574
  1408G11  C0FF96485   9.353   7.905   7.644
  1408G11  H01A96486   9.411   7.961   7.715
  1408G11  C0FG96487   9.210   7.929   7.627
  1408G11  H01896488   9.161   7.991   7.700
  1408G11  C0FH96489   9.131   7.863   7.533
  1408G11  C0FI96490   8.996   7.886   7.507
  1408G11  H01996491   8.958   7.962   7.574
  1408G11  O00K96492   8.913   7.819   7.420
  1408G11  C0FL96493   8.975   7.711   7.364
  1408G11  C0FK96494   9.120   7.685   7.367
  1408G11  C0FM96495   9.170   7.577   7.292
  1408G11  C0FN96496   9.087   7.495   7.217
  1408G11  C0FP96497   8.948   7.508   7.234
  1408G11  C0GO96498   8.860   7.421   7.176
  1408G11  C0GN96499   8.718   7.424   7.187
  1408G11  C0GR96500   8.668   7.532   7.260
  1408G11  C0GS96501   8.525   7.556   7.259
  1408G11  H01Q96502   8.485   7.648   7.299
  1408G11  C0GT96503   8.435   7.460   7.198
  1408G11  H01O96504   8.327   7.469   7.197
  1408G11  C0GU96505   8.498   7.342   7.150
  1408G11  H01P96506   8.418   7.274   7.128
  1408G11  O00L96507   8.750   7.622   7.318
  1408G11  C0GM96508   8.640   7.320   7.144
  1408G11  C0GL96509   8.705   7.211   7.081
  1408G11  H01R96510   8.633   7.135   7.053
  1408G11  C0GK96511   8.841   7.211   7.052
  1408G11  C0GP96512   8.949   7.121   6.999
  1408G11  C0E296513   9.065   7.201   6.984
  1408G11  C0E196514   9.183   7.123   6.975
  1408G11  C0DU96515   9.303   7.147   7.042
  1408G11  C0DT96516   9.356   7.264   7.101
  1408G11  C0E496517   9.281   7.365   7.152
  1408G11  C0E596518   9.361   7.457   7.215
  1408G11  C0DS96519   9.475   7.278   7.164
  1408G11  C0DR96520   9.541   7.158   7.184
  1408G11  C0DD96521   9.662   7.141   7.249
  1408G11  C0DC96522   9.679   6.997   7.255
  1408G11  C0DP96523   9.565   6.924   7.207
  1408G11  C0DA96524   9.535   6.781   7.215
  1408G11  C0D996525   9.622   6.670   7.268
  1408G11  C0CR96526   9.565   6.534   7.276
  1408G11  C0C096527   9.437   6.501   7.247
  1408G11  C0BZ96528   9.378   6.379   7.246
  1408G11  C0C196529   9.246   6.357   7.203
  1408G11  C0C796530   9.186   6.234   7.226
  1408G11  C0C696531   9.059   6.209   7.183
  1408G11  C0C996532   9.005   6.085   7.203
  1408G11  C0B896533   8.881   6.053   7.137
  1408G11  C0B796534   8.815   5.929   7.164
  1408G11  C0B696535   8.698   5.871   7.106
  1408G11  C0B596536   8.682   5.862   6.962
  1408G11  H00Z96537   8.734   5.923   6.889
  1408G11  C0B496538   8.615   5.738   6.938
  1408G11  H01096539   8.608   5.687   6.842
  1408G11  C0B396540   8.579   5.679   7.059
  1408G11  C0AP96541   8.597   5.542   7.115
  1408G11  C0AQ96542   8.657   5.564   7.242
  1408G11  C0AR96543   8.733   5.462   7.305
  1408G11  C0AS96544   8.834   5.505   7.381
  1408G11  C0AT96545   8.883   5.634   7.383
  1408G11  C0BA96546   8.812   5.733   7.319
  1408G11  C0AU96547   9.010   5.658   7.427
  1408G11  C0BE96548   9.074   5.777   7.387
  1408G11  C0BI96549   9.212   5.792   7.405
  1408G11  C0BJ96550   9.289   5.684   7.453
  1408G11  C0BK96551   9.425   5.693   7.454
  1408G11  C0BW96552   9.488   5.813   7.413
  1408G11  C0BV96553   9.411   5.919   7.376
  1408G11  C0BU96554   9.471   6.042   7.350
  1408G11  C0BX96555   9.398   6.151   7.308
  1408G11  C0BT96556   9.610   6.056   7.365
  1408G11  C0CD96557   9.668   6.178   7.347
  1408G11  C0CB96558   9.591   6.290   7.310
  1408G11  C0CE96559   9.803   6.190   7.357
  1408G11  C0CK96560   9.883   6.076   7.373
  1408G11  C0BS96561   9.827   5.948   7.381
  1408G11  C0CJ96562   9.901   5.828   7.373
  1408G11  C0BP96563   9.836   5.709   7.394
  1408G11  C0CI96564   9.903   5.589   7.365
  1408G11  C0CH96565   9.847   5.475   7.424
  1408G11  H01296566   9.901   5.383   7.408
  1408G11  C0BN96567   9.718   5.470   7.471
  1408G11  C0CG96568   9.660   5.355   7.527
  1408G11  C0CF96569   9.731   5.236   7.571
  1408G11  H01396570   9.839   5.239   7.582
  1408G11  O00G96571   9.674   5.128   7.630
  1408G11  C0AA96572   9.540   5.112   7.617
  1408G11  C0A996573   9.481   4.996   7.655
  1408G11  H00U96574   9.540   4.919   7.704
  1408G11  C0A896575   9.349   4.967   7.629
  1408G11  H00V96576   9.315   4.867   7.650
  1408G11  C0A796577   9.269   5.065   7.555
  1408G11  C0A696578   9.321   5.204   7.539
  1408G11  C0A596579   9.244   5.317   7.509
  1408G11  C0A496580   9.101   5.302   7.493
  1408G11  C0A396581   9.004   5.195   7.459
  1408G11  C0A296582   9.046   5.066   7.424
  1408G11  C0A196583   8.947   4.973   7.394
  1408G11  C0A096584   8.813   4.973   7.328
  1408G11  C09Z96585   8.752   4.843   7.309
  1408G11  C09Y96586   8.640   4.834   7.225
  1408G11  H00Y96587   8.603   4.736   7.199
  1408G11  C09X96588   8.586   4.946   7.161
  1408G11  C09W96589   8.490   4.922   7.063
  1408G11  H00R96590   8.449   4.824   7.045
  1408G11  C0AX96591   8.440   5.029   6.990
  1408G11  H00S96592   8.358   5.016   6.921
  1408G11  C0AW96593   8.493   5.155   7.016
  1408G11  H00T96594   8.437   5.239   6.978
  1408G11  C0AN96595   8.581   5.183   7.114
  1408G11  C0AO96596   8.622   5.311   7.151
  1408G11  C0AM96597   8.637   5.072   7.186
  1408G11  C0B296598   8.795   4.721   7.362
  1408G11  O00D96599   8.734   4.611   7.360
  1408G11  C0B196600   8.917   4.729   7.439
  1408G11  H00W96601   8.942   4.640   7.495
  1408G11  C0AL96602   8.748   5.089   7.278
  1408G11  C0AK96603   8.786   5.215   7.309
  1408G11  C0B096604   8.984   4.847   7.452
  1408G11  C0AZ96605   9.106   4.870   7.518
  1408G11  H00X96606   9.154   4.790   7.574
  1408G11  C0AJ96607   8.889   5.262   7.399
  1408G11  C0AH96608   9.030   5.425   7.488
  1408G11  C0AE96609   9.305   5.443   7.506
  1408G11  C0AD96610   9.443   5.455   7.509
  1408G11  C0AY96611   9.151   5.007   7.502
  1408G11  C0AB96612   9.461   5.219   7.563
  1408G11  C0AC96613   9.522   5.345   7.541
  1408G11  C0BM96614   9.641   5.586   7.460
  1408G11  C0CM96615  10.023   5.597   7.301
  1408G11  C09M96616  10.112   5.712   7.330
  1408G11  C09896617  10.255   5.683   7.346
  1408G11  C08R96618  10.370   5.771   7.368
  1408G11  C08Q96619  10.496   5.710   7.353
  1408G11  C08P96620  10.631   5.754   7.316
  1408G11  C08Y96621  10.699   5.647   7.254
  1408G11  C09796622  10.637   5.537   7.208
  1408G11  C09696623  10.681   5.498   7.089
  1408G11  C09096624  10.802   5.567   7.072
  1408G11  C09596625  10.905   5.548   6.977
  1408G11  C09496626  11.042   5.593   6.987
  1408G11  C08J96627  11.096   5.684   7.080
  1408G11  C08I96628  11.198   5.754   7.015
  1408G11  C08H96629  11.222   5.877   7.078
  1408G11  C08G96630  11.097   5.908   7.153
  1408G11  C08F96631  11.036   6.019   7.221
  1408G11  C08E96632  11.106   6.138   7.233
  1408G11  C05996633  11.251   6.164   7.218
  1408G11  C05896634  11.311   6.292   7.221
  1408G11  C05796635  11.447   6.321   7.188
  1408G11  C05696636  11.536   6.209   7.180
  1408G11  C05596637  11.490   6.079   7.209
  1408G11  C05496638  11.575   5.993   7.130
  1408G11  C05396639  11.675   6.067   7.069
  1408G11  C05296640  11.773   6.023   6.969
  1408G11  C05196641  11.779   5.883   6.931
  1408G11  C05U96642  11.682   5.777   6.964
  1408G11  C05T96643  11.556   5.772   7.023
  1408G11  C06K96644  11.504   5.638   7.035
  1408G11  H00J96645  11.413   5.602   7.081
  1408G11  C06L96646  11.604   5.552   6.977
  1408G11  H00I96647  11.599   5.445   6.964
  1408G11  C05V96648  11.711   5.641   6.929
  1408G11  C06J96649  11.819   5.597   6.854
  1408G11  H00K96650  11.829   5.492   6.829
  1408G11  C05X96651  11.900   5.698   6.802
  1408G11  C06I96652  12.000   5.667   6.709
  1408G11  H00L96653  12.001   5.562   6.685
  1408G11  C04Z96654  12.074   5.762   6.647
  1408G11  C06H96655  12.167   5.722   6.548
  1408G11  H00H96656  12.195   5.619   6.533
  1408G11  C04Y96657  12.236   5.831   6.472
  1408G11  C06G96658  12.326   5.792   6.368
  1408G11  O00996659  12.366   5.678   6.331
  1408G11  O00896660  12.374   5.893   6.282
  1408G11  C04P96661  12.346   6.023   6.304
  1408G11  C04J96662  12.398   6.127   6.222
  1408G11  C04Q96663  12.474   6.114   6.109
  1408G11  H00E96664  12.503   6.013   6.086
  1408G11  C04M96665  12.515   6.221   6.022
  1408G11  C04R96666  12.607   6.213   5.912
  1408G11  H00F96667  12.649   6.115   5.900
  1408G11  C04S96668  12.644   6.325   5.846
  1408G11  H00G96669  12.713   6.319   5.763
  1408G11  O00796670  12.600   6.449   5.884
  1408G11  C03V96671  12.498   6.456   5.980
  1408G11  C03U96672  12.446   6.582   6.008
  1408G11  O00696673  12.477   6.680   5.927
  1408G11  C03F96674  12.417   6.798   5.946
  1408G11  C03E96675  12.320   6.826   6.044
  1408G11  C03D96676  12.289   6.730   6.138
  1408G11  C03C96677  12.197   6.752   6.239
  1408G11  C03B96678  12.140   6.879   6.238
  1408G11  C03A96679  12.048   6.903   6.340
  1408G11  C03996680  12.019   6.814   6.447
  1408G11  C03896681  11.920   6.891   6.525
  1408G11  C03796682  11.913   7.015   6.458
  1408G11  C03696683  11.844   7.112   6.526
  1408G11  C02R96684  11.816   7.235   6.473
  1408G11  C03596685  11.711   7.282   6.555
  1408G11  C03R96686  11.689   7.201   6.662
  1408G11  C03S96687  11.564   7.188   6.729
  1408G11  C04996688  11.543   7.080   6.806
  1408G11  C04896689  11.640   6.972   6.785
  1408G11  C03P96690  11.753   6.963   6.692
  1408G11  C04796691  11.608   6.864   6.869
  1408G11  C04696692  11.679   6.745   6.881
  1408G11  C04596693  11.790   6.691   6.812
  1408G11  C03T96694  11.854   6.737   6.698
  1408G11  C04496695  11.960   6.643   6.669
  1408G11  C04396696  11.958   6.548   6.774
  1408G11  C04296697  12.002   6.427   6.730
  1408G11  C04196698  12.072   6.465   6.603
  1408G11  C04096699  12.160   6.375   6.530
  1408G11  C03Z96700  12.227   6.406   6.406
  1408G11  C04H96701  12.284   6.283   6.369
  1408G11  C04G96702  12.252   6.187   6.458
  1408G11  C03N96703  12.241   6.520   6.319
  1408G11  C03Y96704  12.329   6.498   6.206
  1408G11  C03X96705  12.382   6.366   6.174
  1408G11  C04F96706  12.171   6.234   6.555
  1408G11  C04E96707  12.096   6.139   6.633
  1408G11  C04O96708  12.123   5.998   6.607
  1408G11  C04D96709  12.003   6.169   6.734
  1408G11  C04V96710  11.948   6.063   6.809
  1408G11  C04W96711  11.963   5.925   6.776
  1408G11  C04C96712  11.962   6.295   6.788
  1408G11  C04L96713  11.878   6.259   6.901
  1408G11  C04U96714  11.804   6.354   6.977
  1408G11  C05Q96715  11.705   6.325   7.068
  1408G11  C05P96716  11.626   6.440   7.083
  1408G11  C04T96717  11.671   6.540   7.001
  1408G11  C04B96718  11.778   6.486   6.935
  1408G11  C03M96719  12.044   6.599   6.564
  1408G11  C04A96720  11.842   6.567   6.844
  1408G11  C05H96721  11.611   6.666   6.973
  1408G11  C05G96722  11.505   6.739   7.029
  1408G11  C05F96723  11.411   6.693   7.126
  1408G11  C05E96724  11.279   6.747   7.141
  1408G11  C05L96725  11.201   6.867   7.115
  1408G11  C05K96726  11.259   6.977   7.043
  1408G11  C05J96727  11.389   6.973   6.971
  1408G11  C06696728  11.170   7.083   7.018
  1408G11  C06596729  11.032   7.077   7.065
  1408G11  C06496730  10.984   6.969   7.141
  1408G11  C06N96731  10.944   7.183   7.052
  1408G11  C06996732  10.989   7.291   6.974
  1408G11  C06P96733  10.903   7.404   6.953
  1408G11  C06R96734  10.935   7.503   6.862
  1408G11  C06B96735  11.055   7.493   6.791
  1408G11  C06S96736  11.080   7.579   6.685
  1408G11  C02G96737  11.191   7.561   6.608
  1408G11  C02F96738  11.217   7.647   6.501
  1408G11  C02796739  11.129   7.749   6.474
  1408G11  C02696740  11.153   7.834   6.368
  1408G11  C00E96741  11.074   7.942   6.351
  1408G11  C00D96742  11.101   8.020   6.242
  1408G11  C00C96743  11.025   8.134   6.232
  1408G11  C00B96744  10.909   8.159   6.294
  1408G11  C01596745  10.875   8.066   6.393
  1408G11  C07F96746  10.761   8.083   6.470
  1408G11  C07E96747  10.734   7.996   6.570
  1408G11  C06W96748  10.821   7.895   6.603
  1408G11  C06V96749  10.938   7.873   6.531
  1408G11  C06X96750  10.792   7.805   6.708
  1408G11  C07B96751  10.675   7.822   6.777
  1408G11  C07C96752  10.585   7.921   6.747
  1408G11  C0FU96753  10.460   7.922   6.806
  1408G11  C0F796754  10.369   8.016   6.764
  1408G11  C0F696755  10.248   8.019   6.829
  1408G11  C0F896756  10.156   8.120   6.795
  1408G11  C0F996757  10.032   8.123   6.859
  1408G11  C0FA96758   9.950   8.231   6.830
  1408G11  C0FZ96759   9.984   8.319   6.732
  1408G11  C0G096760   9.894   8.415   6.686
  1408G11  C0GD96761   9.772   8.433   6.751
  1408G11  C0FC96762   9.734   8.345   6.857
  1408G11  C0GH96763   9.609   8.362   6.919
  1408G11  C0EY96764   9.576   8.265   7.012
  1408G11  C0EX96765   9.446   8.266   7.065
  1408G11  C0EW96766   9.400   8.155   7.133
  1408G11  C0FR96767   9.265   8.154   7.189
  1408G11  H01D96768   9.219   8.067   7.234
  1408G11  C0FS96769   9.178   8.261   7.177
  1408G11  H01C96770   9.077   8.254   7.212
  1408G11  C0GJ96771   9.227   8.368   7.100
  1408G11  H01N96772   9.160   8.448   7.073
  1408G11  C0EV96773   9.485   8.045   7.156
  1408G11  C0FT96774   9.441   7.933   7.230
  1408G11  H01E96775   9.338   7.918   7.259
  1408G11  C0EU96776   9.616   8.047   7.110
  1408G11  C0ET96777   9.702   7.940   7.129
  1408G11  C0EI96778   9.829   7.933   7.088
  1408G11  C0F196779   9.872   8.035   7.006
  1408G11  C0F096780   9.791   8.148   6.987
  1408G11  C0EH96781   9.914   7.817   7.118
  1408G11  C0EG96782   9.861   7.696   7.181
  1408G11  C0EJ96783  10.047   7.822   7.068
  1408G11  C0F396784  10.085   7.927   6.986
  1408G11  C0EK96785  10.133   7.723   7.100
  1408G11  C0EL96786  10.090   7.605   7.169
  1408G11  C0EM96787  10.199   7.515   7.213
  1408G11  C0EN96788  10.329   7.548   7.177
  1408G11  C07I96789  10.416   7.442   7.209
  1408G11  C07496790  10.542   7.431   7.139
  1408G11  C07396791  10.613   7.314   7.147
  1408G11  C07296792  10.740   7.311   7.097
  1408G11  C07596793  10.579   7.538   7.061
  1408G11  C07696794  10.493   7.648   7.039
  1408G11  C07896795  10.525   7.738   6.945
  1408G11  C07G96796  10.702   7.533   7.000
  1408G11  C07096797  10.742   7.634   6.911
  1408G11  C07Z96798  10.356   7.335   7.258
  1408G11  C07796799  10.363   7.647   7.087
  1408G11  C0EO96800  10.269   7.737   7.054
  1408G11  C0F496801  10.309   7.837   6.966
  1408G11  C0EQ96802   9.653   7.826   7.186
  1408G11  C0FQ96803   9.359   8.370   7.042
  1408G11  C0GI96804   9.404   8.468   6.956
  1408G11  H01L96805   9.329   8.543   6.934
  1408G11  C0EZ96806   9.661   8.154   7.038
  1408G11  C0GG96807   9.524   8.467   6.886
  1408G11  C0GF96808   9.559   8.548   6.781
  1408G11  H01M96809   9.487   8.615   6.735
  1408G11  C0GE96810   9.676   8.529   6.719
  1408G11  H01K96811   9.694   8.592   6.633
  1408G11  O00J96812   9.918   8.488   6.583
  1408G11  C0GA96813  10.035   8.477   6.518
  1408G11  C0G996814  10.048   8.555   6.407
  1408G11  H01H96815   9.968   8.609   6.361
  1408G11  C0G896816  10.173   8.579   6.349
  1408G11  C0G796817  10.207   8.682   6.248
  1408G11  H01I96818  10.135   8.755   6.214
  1408G11  O00I96819  10.332   8.693   6.206
  1408G11  C0G696820  10.421   8.592   6.235
  1408G11  H01J96821  10.514   8.609   6.182
  1408G11  C02D96822  10.401   8.489   6.330
  1408G11  C02C96823  10.494   8.393   6.365
  1408G11  C01796824  10.622   8.378   6.297
  1408G11  C01696825  10.711   8.277   6.325
  1408G11  O00196826  10.650   8.452   6.184
  1408G11  C01896827  10.772   8.449   6.119
  1408G11  C00996828  10.863   8.350   6.151
  1408G11  C00896829  10.988   8.318   6.080
  1408G11  C00796830  11.053   8.368   5.964
  1408G11  C00696831  11.012   8.471   5.886
  1408G11  C00596832  11.082   8.520   5.771
  1408G11  C00496833  11.207   8.477   5.714
  1408G11  C00396834  11.298   8.364   5.745
  1408G11  C00296835  11.431   8.343   5.678
  1408G11  C00P96836  11.516   8.233   5.703
  1408G11  C00O96837  11.639   8.221   5.641
  1408G11  C00N96838  11.721   8.110   5.657
  1408G11  C01096839  11.857   8.107   5.618
  1408G11  C01196840  11.946   8.000   5.647
  1408G11  C01Q96841  12.084   8.008   5.615
  1408G11  C01U96842  12.133   8.114   5.539
  1408G11  C01296843  12.042   8.216   5.504
  1408G11  H00096844  12.083   8.299   5.450
  1408G11  C01V96845  12.266   8.106   5.496
  1408G11  H00796846  12.298   8.172   5.417
  1408G11  O00596847  12.358   8.014   5.533
  1408G11  C01W96848  12.308   7.918   5.617
  1408G11  C03196849  12.401   7.817   5.664
  1408G11  C03296850  12.358   7.721   5.744
  1408G11  H00A96851  12.436   7.651   5.773
  1408G11  C03396852  12.227   7.719   5.791
  1408G11  H00B96853  12.211   7.647   5.870
  1408G11  C01O96854  12.130   7.806   5.734
  1408G11  C01N96855  11.991   7.790   5.761
  1408G11  C01M96856  11.944   7.673   5.845
  1408G11  C01L96857  11.978   7.549   5.931
  1408G11  C01K96858  11.870   7.523   6.016
  1408G11  C01Y96859  11.862   7.437   6.120
  1408G11  C02I96860  11.955   7.343   6.134
  1408G11  C02N96861  11.933   7.255   6.245
  1408G11  C02M96862  12.013   7.141   6.246
  1408G11  C02L96863  12.107   7.109   6.146
  1408G11  C02K96864  12.129   7.208   6.044
  1408G11  C02U96865  12.233   7.178   5.951
  1408G11  C02V96866  12.305   7.056   5.958
  1408G11  C03H96867  12.415   7.030   5.869
  1408G11  H00C96868  12.465   7.105   5.808
  1408G11  C02W96869  12.255   7.269   5.846
  1408G11  C02X96870  12.171   7.381   5.844
  1408G11  C02Y96871  12.189   7.429   5.717
  1408G11  H00896872  12.129   7.501   5.664
  1408G11  C02Z96873  12.301   7.352   5.653
  1408G11  O00496874  12.349   7.372   5.542
  1408G11  O00396875  12.334   7.255   5.734
  1408G11  C02J96876  12.057   7.332   6.036
  1408G11  C01Z96877  11.754   7.461   6.202
  1408G11  C02096878  11.652   7.554   6.174
  1408G11  C01I96879  11.666   7.634   6.068
  1408G11  C01H96880  11.582   7.736   6.037
  1408G11  C00K96881  11.605   7.823   5.930
  1408G11  C01S96882  11.726   7.812   5.860
  1408G11  C01496883  11.772   7.904   5.772
  1408G11  C00J96884  11.522   7.930   5.902
  1408G11  C00I96885  11.409   7.948   5.978
  1408G11  C00H96886  11.388   7.865   6.092
  1408G11  C00G96887  11.282   7.886   6.175
  1408G11  C00S96888  11.331   8.059   5.960
  1408G11  C00T96889  11.235   8.074   6.049
  1408G11  C00U96890  11.160   8.188   6.036
  1408G11  C00R96891  11.360   8.151   5.861
  1408G11  C00L96892  11.560   8.023   5.803
  1408G11  C02896893  11.473   7.755   6.116
  1408G11  C02396894  11.455   7.680   6.229
  1408G11  C02496895  11.344   7.705   6.309
  1408G11  C02196896  11.548   7.581   6.255
  1408G11  C02296897  11.529   7.507   6.366
  1408G11  C02H96898  11.417   7.529   6.451
  1408G11  C03096899  11.394   7.450   6.563
  1408G11  C03496900  11.494   7.368   6.597
  1408G11  C02P96901  11.625   7.413   6.398
  1408G11  C02B96902  11.735   7.384   6.314
  1408G11  C01J96903  11.771   7.612   5.987
  1408G11  C01X96904  12.074   7.434   5.930
  1408G11  C01T96905  11.809   7.698   5.887
  1408G11  H00996906  12.504   7.819   5.633
  1408G11  C01P96907  12.173   7.913   5.656
  1408G11  C01R96908  11.904   7.892   5.723
  1408G11  C00Z96909  11.905   8.215   5.537
  1408G11  O00096910  11.820   8.322   5.506
  1408G11  C00M96911  11.680   8.008   5.738
  1408G11  C00Y96912  11.691   8.320   5.553
  1408G11  C01396913  11.606   8.428   5.525
  1408G11  H00196914  11.639   8.510   5.463
  1408G11  C00Q96915  11.474   8.130   5.782
  1408G11  C00196916  11.475   8.439   5.585
  1408G11  C00096917  11.382   8.536   5.550
  1408G11  H00696918  11.404   8.608   5.473
  1408G11  C00W96919  11.279   8.268   5.847
  1408G11  C01G96920  11.253   8.557   5.610
  1408G11  H00596921  11.197   8.645   5.581
  1408G11  C01C96922  10.997   8.630   5.720
  1408G11  H00296923  11.008   8.678   5.623
  1408G11  C01B96924  10.886   8.644   5.809
  1408G11  C01D96925  10.786   8.746   5.805
  1408G11  H00396926  10.781   8.821   5.727
  1408G11  C01E96927  10.693   8.734   5.901
  1408G11  H00496928  10.614   8.808   5.894
  1408G11  O00296929  10.693   8.642   6.001
  1408G11  C01A96930  10.900   8.549   5.915
  1408G11  C00V96931  11.170   8.284   5.935
  1408G11  C01996932  10.793   8.549   6.016
  1408G11  C02E96933  10.464   8.299   6.464
  1408G11  C0FX96934  10.344   8.298   6.530
  1408G11  C0FW96935  10.312   8.207   6.633
  1408G11  C0GB96936  10.248   8.387   6.488
  1408G11  C0G396937  10.557   8.198   6.502
  1408G11  C07H96938  10.522   8.104   6.601
  1408G11  C0GC96939  10.273   8.487   6.391
  1408G11  C0G296940  10.133   8.390   6.558
  1408G11  C0G196941  10.098   8.306   6.662
  1408G11  C0FB96942   9.827   8.245   6.897
  1408G11  C0F296943   9.998   8.029   6.957
  1408G11  C0FY96944  10.191   8.213   6.695
  1408G11  C0F596945  10.213   7.928   6.931
  1408G11  C0FV96946  10.402   8.112   6.668
  1408G11  C07996947  10.434   7.833   6.906
  1408G11  C07A96948  10.648   7.734   6.881
  1408G11  C06Y96949  10.876   7.700   6.729
  1408G11  C07D96950  10.611   8.001   6.634
  1408G11  C01F96951  10.678   8.186   6.430
  1408G11  C00A96952  10.830   8.264   6.257
  1408G11  C00X96953  11.066   8.220   6.130
  1408G11  C00F96954  11.202   7.993   6.153
  1408G11  C02996955  10.963   7.962   6.425
  1408G11  C02596956  11.262   7.805   6.285
  1408G11  C06U96957  11.019   7.766   6.552
  1408G11  C02A96958  11.321   7.625   6.419
  1408G11  C05Y96959  11.283   7.464   6.643
  1408G11  C05Z96960  11.260   7.383   6.751
  1408G11  C06096961  11.354   7.288   6.780
  1408G11  C06296962  11.333   7.185   6.875
  1408G11  C06T96963  10.992   7.680   6.653
  1408G11  C06A96964  11.144   7.385   6.819
  1408G11  C06Z96965  10.852   7.610   6.833
  1408G11  C06Q96966  10.783   7.417   7.020
  1408G11  C06896967  11.116   7.286   6.910
  1408G11  C06796968  11.202   7.179   6.930
  1408G11  C06396969  11.064   6.861   7.162
  1408G11  C06C96970  10.999   6.743   7.202
  1408G11  C06D96971  11.068   6.628   7.210
  1408G11  C06E96972  11.014   6.502   7.239
  1408G11  C07Q96973  10.884   6.495   7.274
  1408G11  C07P96974  10.808   6.618   7.278
  1408G11  C07T96975  10.673   6.607   7.308
  1408G11  C07U96976  10.596   6.726   7.304
  1408G11  C07V96977  10.456   6.721   7.326
  1408G11  C08496978  10.398   6.596   7.345
  1408G11  C08C96979  10.478   6.482   7.351
  1408G11  C08B96980  10.417   6.357   7.359
  1408G11  C08A96981  10.490   6.243   7.360
  1408G11  C08996982  10.628   6.241   7.342
  1408G11  C08896983  10.697   6.123   7.324
  1408G11  C08796984  10.829   6.123   7.294
  1408G11  C08696985  10.894   6.250   7.286
  1408G11  C08X96986  10.626   6.001   7.330
  1408G11  C08T96987  10.481   5.997   7.356
  1408G11  C08D96988  10.688   6.369   7.332
  1408G11  C08U96989  10.423   6.125   7.364
  1408G11  C08V96990  10.287   6.113   7.367
  1408G11  C0CY96991  10.213   6.228   7.367
  1408G11  C0CX96992  10.075   6.209   7.361
  1408G11  C0CW96993   9.999   6.324   7.348
  1408G11  C0CV96994  10.059   6.447   7.343
  1408G11  C0D496995  10.199   6.460   7.351
  1408G11  C0CU96996   9.981   6.559   7.331
  1408G11  C0CT96997   9.840   6.553   7.315
  1408G11  C0CS96998   9.781   6.429   7.324
  1408G11  C0D696999  10.047   6.679   7.324
  1408G11  C0EC97000  10.184   6.696   7.340
  1408G11  C07X97001  10.241   6.827   7.338
  1408G11  C0DL97002   9.970   6.792   7.326
  1408G11  C0DK97003  10.027   6.917   7.328
  1408G11  C0DN97004   9.928   7.003   7.299
  1408G11  C0D897005   9.828   6.796   7.305
  1408G11  C08W97006  10.244   5.982   7.366
  1408G11  C0CQ97007  10.098   5.961   7.371
  1408G11  C09397008  10.280   6.347   7.353
  1408G11  C09297009  10.261   6.583   7.353
  1408G11  C08597010  10.615   6.485   7.336
  1408G11  C07S97011  10.825   6.371   7.303
  1408G11  C06F97012  11.090   6.388   7.243
  1408G11  C07O97013  10.865   6.741   7.241
  1408G11  C07N97014  10.786   6.855   7.231
  1408G11  C05D97015  11.208   6.641   7.191
  1408G11  C05C97016  11.283   6.524   7.211
  1408G11  C05N97017  11.411   6.559   7.178
  1408G11  C05M97018  11.488   6.862   6.958
  1408G11  C05I97019  11.426   7.078   6.889
  1408G11  C06197020  11.473   7.285   6.708
  1408G11  C02Q97021  11.607   7.358   6.516
  1408G11  C02O97022  11.838   7.291   6.341
  1408G11  C03Q97023  11.772   7.093   6.641
  1408G11  C03O97024  11.835   6.860   6.641
  1408G11  C03L97025  12.081   6.682   6.450
  1408G11  C02S97026  11.989   7.030   6.343
  1408G11  C02T97027  12.167   6.978   6.147
  1408G11  C03K97028  12.177   6.648   6.337
  1408G11  C03I97029  12.264   6.954   6.050
  1408G11  C03G97030  12.464   6.900   5.860
  1408G11  H00D97031  12.540   6.877   5.787
  1408G11  C03J97032  12.352   6.607   6.123
  1408G11  C03W97033  12.461   6.346   6.058
  1408G11  C04I97034  12.360   6.255   6.253
  1408G11  C04K97035  12.275   6.058   6.422
  1408G11  C04N97036  12.210   5.965   6.500
  1408G11  C04X97037  12.055   5.895   6.678
  1408G11  C05097038  11.877   5.836   6.836
  1408G11  C05W97039  11.859   6.116   6.903
  1408G11  C05S97040  11.492   5.891   7.074
  1408G11  C05R97041  11.652   6.201   7.108
  1408G11  C05O97042  11.499   6.448   7.148
  1408G11  C05B97043  11.226   6.392   7.230
  1408G11  C05A97044  11.354   6.056   7.188
  1408G11  C07R97045  11.030   6.255   7.250
  1408G11  C08N97046  10.900   6.008   7.252
  1408G11  C08M97047  10.826   5.888   7.251
  1408G11  C08L97048  10.886   5.776   7.191
  1408G11  C09197049  11.350   5.926   7.118
  1408G11  C09K97050  11.186   5.732   6.871
  1408G11  H00M97051  11.231   5.797   6.796
  1408G11  C08K97052  11.018   5.786   7.138
  1408G11  C09J97053  11.087   5.626   6.854
  1408G11  C09I97054  10.979   5.588   6.761
  1408G11  C09L97055  10.962   5.589   6.621
  1408G11  H00N97056  11.036   5.628   6.553
  1408G11  C09Q97057  10.849   5.540   6.570
  1408G11  H00O97058  10.832   5.542   6.464
  1408G11  O00B97059  10.749   5.481   6.642
  1408G11  C09G97060  10.755   5.484   6.779
  1408G11  C09F97061  10.636   5.429   6.846
  1408G11  O00A97062  10.534   5.392   6.760
  1408G11  C09P97063  10.450   5.294   6.812
  1408G11  H00P97064  10.476   5.193   6.785
  1408G11  C09O97065  10.385   5.333   6.934
  1408G11  C09D97066  10.468   5.396   7.033
  1408G11  C09C97067  10.430   5.444   7.162
  1408G11  C09N97068  10.299   5.468   7.229
  1408G11  C09T97069  10.177   5.456   7.152
  1408G11  C09S97070  10.159   5.369   7.042
  1408G11  C0CP97071  10.021   5.360   7.029
  1408G11  C0CN97072   9.945   5.436   7.119
  1408G11  C0CO97073   9.809   5.436   7.109
  1408G11  H01497074   9.743   5.501   7.165
  1408G11  C0CZ97075   9.753   5.351   7.010
  1408G11  H01597076   9.645   5.352   7.006
  1408G11  C0D097077   9.829   5.278   6.912
  1408G11  C0G597078   9.781   5.201   6.800
  1408G11  H01F97079   9.679   5.169   6.788
  1408G11  C0G497080   9.865   5.151   6.703
  1408G11  H01G97081   9.829   5.086   6.624
  1408G11  O00H97082  10.001   5.158   6.715
  1408G11  C0D297083  10.052   5.226   6.820
  1408G11  C09V97084  10.192   5.235   6.835
  1408G11  H00Q97085  10.238   5.180   6.754
  1408G11  C0D197086   9.969   5.286   6.918
  1408G11  C09R97087  10.248   5.308   6.944
  1408G11  C09H97088  10.875   5.535   6.842
  1408G11  C09E97089  10.602   5.436   6.987
  1408G11  C09B97090  10.516   5.510   7.247
  1408G11  C08Z97091  10.803   5.667   7.172
  1408G11  C08O97092  10.694   5.879   7.303
  1408G11  C09A97093  10.460   5.572   7.354
  1408G11  C08S97094  10.366   5.907   7.361
  1408G11  C09997095  10.320   5.552   7.345
  1408G11  C09U97096  10.048   5.498   7.202
  1408G11  C0BO97097   9.701   5.712   7.428
  1408G11  C0CL97098  10.039   5.836   7.360
  1408G11  C0D397099  10.021   6.081   7.363
  1408G11  C0D597100   9.865   6.315   7.343
  1408G11  C0BR97101   9.687   5.940   7.385
  1408G11  C0BQ97102   9.627   5.824   7.414
  1408G11  C0BL97103   9.504   5.580   7.481
  1408G11  C0AF97104   9.230   5.557   7.488
  1408G11  C0BH97105   9.276   5.909   7.362
  1408G11  C0BG97106   9.204   6.010   7.312
  1408G11  C0BD97107   9.006   5.870   7.309
  1408G11  C0AG97108   9.087   5.558   7.480
  1408G11  C0AI97109   8.910   5.398   7.428
  1408G11  C0AV97110   8.712   5.327   7.260
  1408G11  C0BB97111   8.688   5.702   7.259
  1408G11  O00C97112   8.576   5.419   7.073
  1408G11  C0BC97113   8.617   5.774   7.163
  1408G11  C0B997114   8.873   5.850   7.267
  1408G11  O00E97115   8.823   6.144   7.056
  1408G11  C0CA97116   8.867   6.266   7.039
  1408G11  O00F97117   8.798   6.341   6.974
  1408G11  C0BF97118   9.074   5.989   7.265
  1408G11  C0C597119   8.989   6.296   7.102
  1408G11  C0C497120   9.051   6.426   7.082
  1408G11  H01197121   9.001   6.500   7.022
  1408G11  C0C897122   9.262   6.133   7.283
  1408G11  C0C297123   9.171   6.460   7.146
  1408G11  C0C397124   9.234   6.590   7.152
  1408G11  C0DY97125   9.180   6.699   7.097
  1408G11  H01697126   9.084   6.723   7.053
  1408G11  C0DX97127   9.286   6.793   7.107
  1408G11  C0DW97128   9.269   6.925   7.062
  1408G11  C0BY97129   9.456   6.275   7.296
  1408G11  C0DB97130   9.362   6.610   7.198
  1408G11  C0CC97131   9.648   6.417   7.302
  1408G11  C0D797132   9.763   6.670   7.295
  1408G11  C0DZ97133   9.406   6.740   7.175
  1408G11  C0DM97134   9.798   6.936   7.297
  1408G11  C0DQ97135   9.486   7.030   7.151
  1408G11  C0DV97136   9.363   7.029   7.081
  1408G11  C0E097137   9.151   6.986   6.994
  1408G11  C0FO97138   9.047   7.305   7.076
  1408G11  C0E397139   9.005   6.982   7.027
  1408G11  H01797140   8.962   6.907   7.092
  1408G11  C0GV97141   8.918   7.322   7.097
  1408G11  C0ES97142   9.138   7.386   7.140
  1408G11  C0GQ97143   8.888   7.613   7.307
  1408G11  C0FJ97144   9.196   7.764   7.450
  1408G11  C0ED97145   9.312   7.565   7.293
  1408G11  C0ER97146   9.529   7.823   7.248
  1408G11  C0EP97147   9.720   7.711   7.213
  1408G11  C0E697148   9.496   7.411   7.209
  1408G11  C0DE97149   9.767   7.249   7.230
  1408G11  C0EA97150   9.950   7.584   7.187
  1408G11  C0DF97151   9.900   7.222   7.198
  1408G11  C08097152  10.216   7.380   7.267
  1408G11  C0DO97153   9.977   7.121   7.251
  1408G11  C0DJ97154  10.167   6.939   7.327
  1408G11  C07K97155  10.426   7.204   7.250
  1408G11  C07W97156  10.380   6.838   7.324
  1408G11  C08397157  10.654   6.848   7.272
  1408G11  C07J97158  10.559   7.203   7.211
  1408G11  C06O97159  10.819   7.194   7.102
  1408G11  C06M97160  10.844   6.970   7.179
  11.00000  11.00000  23.00000   0.00000   0.00000   0.00000   0.00000   0.00000   0.00000
