generated by VMD, t= 0.000000
694
    18G11C C071    1  20.666  28.180   6.305
    18G11C C07L    2  20.691  28.043   6.268
    18G11C C07M    3  20.773  28.015   6.163
    18G11C C07Y    4  20.808  27.878   6.135
    18G11C C081    5  20.758  27.767   6.205
    18G11C C082    6  20.805  27.636   6.173
    18G11C C0DI    7  20.757  27.506   6.231
    18G11C C0DH    8  20.667  27.465   6.331
    18G11C C0DG    9  20.661  27.319   6.342
    18G11C C0E9   10  20.657  27.228   6.456
    18G11C C0E8   11  20.733  27.106   6.400
    18G11C C0E7   12  20.724  26.969   6.445
    18G11C C0EB   13  20.625  26.935   6.546
    18G11C C0EF   14  20.561  26.804   6.565
    18G11C C0EE   15  20.573  26.682   6.491
    18G11C C0FD   16  20.455  26.602   6.481
    18G11C C0FE   17  20.322  26.634   6.520
    18G11C H01B   18  20.315  26.738   6.551
    18G11C C0FF   19  20.214  26.544   6.521
    18G11C H01A   20  20.112  26.571   6.545
    18G11C C0FG   21  20.233  26.424   6.461
    18G11C H018   22  20.151  26.354   6.455
    18G11C C0FH   23  20.362  26.386   6.414
    18G11C C0FI   24  20.386  26.257   6.356
    18G11C H019   25  20.298  26.195   6.349
    18G11C O00K   26  20.509  26.206   6.320
    18G11C C0FL   27  20.611  26.295   6.335
    18G11C C0FK   28  20.599  26.428   6.389
    18G11C C0FM   29  20.712  26.508   6.400
    18G11C C0FN   30  20.839  26.447   6.368
    18G11C C0FP   31  20.845  26.320   6.306
    18G11C C0GO   32  20.962  26.266   6.259
    18G11C C0GN   33  20.975  26.160   6.176
    18G11C C0GR   34  20.853  26.086   6.161
    18G11C C0GS   35  20.853  25.964   6.087
    18G11C H01Q   36  20.762  25.906   6.083
    18G11C C0GT   37  20.972  25.928   6.024
    18G11C H01O   38  20.978  25.841   5.960
    18G11C C0GU   39  21.087  26.010   6.025
    18G11C H01P   40  21.171  25.975   5.968
    18G11C O00L   41  20.741  26.120   6.235
    18G11C C0GM   42  21.096  26.126   6.107
    18G11C C0GL   43  21.205  26.212   6.129
    18G11C H01R   44  21.298  26.193   6.076
    18G11C C0GK   45  21.197  26.316   6.223
    18G11C C0GP   46  21.278  26.427   6.255
    18G11C C0E2   47  21.208  26.507   6.355
    18G11C C0E1   48  21.241  26.640   6.328
    18G11C C0DU   49  21.148  26.749   6.320
    18G11C C0DT   50  21.017  26.760   6.364
    18G11C C0E4   51  20.933  26.658   6.403
    18G11C C0E5   52  20.812  26.720   6.433
    18G11C C0DS   53  20.942  26.875   6.349
    18G11C C0DR   54  20.991  26.970   6.263
    18G11C C0DD   55  20.929  27.091   6.219
    18G11C C0DC   56  21.025  27.149   6.122
    18G11C C0DP   57  21.127  27.054   6.091
    18G11C C0DA   58  21.234  27.064   5.985
    18G11C C0D9   59  21.281  27.179   5.905
    18G11C C0CR   60  21.388  27.165   5.812
    18G11C C0C0   61  21.447  27.046   5.782
    18G11C C0BZ   62  21.563  27.023   5.711
    18G11C C0C1   63  21.621  26.893   5.697
    18G11C C0C7   64  21.747  26.875   5.631
    18G11C C0C6   65  21.798  26.749   5.622
    18G11C C0C9   66  21.920  26.735   5.557
    18G11C C0B8   67  21.980  26.609   5.556
    18G11C C0B7   68  22.104  26.579   5.497
    18G11C C0B6   69  22.198  26.463   5.486
    18G11C C0B5   70  22.217  26.346   5.570
    18G11C H00Z   71  22.152  26.322   5.652
    18G11C C0B4   72  22.349  26.296   5.546
    18G11C H010   73  22.401  26.219   5.601
    18G11C C0B3   74  22.413  26.385   5.450
    18G11C C0AP   75  22.536  26.444   5.386
    18G11C C0AQ   76  22.481  26.555   5.310
    18G11C C0AR   77  22.559  26.671   5.302
    18G11C C0AS   78  22.484  26.785   5.291
    18G11C C0AT   79  22.348  26.795   5.307
    18G11C C0BA   80  22.275  26.687   5.344
    18G11C C0AU   81  22.290  26.918   5.327
    18G11C C0BE   82  22.165  26.931   5.384
    18G11C C0BI   83  22.109  27.061   5.395
    18G11C C0BJ   84  22.178  27.170   5.336
    18G11C C0BK   85  22.122  27.293   5.340
    18G11C C0BW   86  21.992  27.313   5.397
    18G11C C0BV   87  21.929  27.202   5.456
    18G11C C0BU   88  21.804  27.219   5.521
    18G11C C0BX   89  21.750  27.114   5.593
    18G11C C0BT   90  21.750  27.345   5.527
    18G11C C0CD   91  21.633  27.366   5.598
    18G11C C0CB   92  21.571  27.257   5.667
    18G11C C0CE   93  21.575  27.493   5.602
    18G11C C0CK   94  21.632  27.598   5.527
    18G11C C0BS   95  21.753  27.577   5.453
    18G11C C0CJ   96  21.814  27.691   5.390
    18G11C C0BP   97  21.940  27.669   5.328
    18G11C C0CI   98  22.012  27.774   5.273
    18G11C C0CH   99  22.152  27.754   5.257
    18G11C H012  100  22.202  27.850   5.248
    18G11C C0BN  101  22.213  27.628   5.250
    18G11C C0CG  102  22.341  27.613   5.210
    18G11C C0CF  103  22.422  27.729   5.173
    18G11C H013  104  22.386  27.831   5.178
    18G11C O00G  105  22.550  27.713   5.129
    18G11C C0AA  106  22.606  27.588   5.132
    18G11C C0A9  107  22.736  27.579   5.087
    18G11C H00U  108  22.789  27.667   5.053
    18G11C C0A8  109  22.804  27.456   5.090
    18G11C H00V  110  22.904  27.472   5.053
    18G11C C0A7  111  22.751  27.336   5.153
    18G11C C0A6  112  22.613  27.348   5.191
    18G11C C0A5  113  22.538  27.249   5.244
    18G11C C0A4  114  22.594  27.119   5.275
    18G11C C0A3  115  22.724  27.050   5.283
    18G11C C0A2  116  22.838  27.098   5.223
    18G11C C0A1  117  22.959  27.022   5.217
    18G11C C0A0  118  23.002  26.883   5.249
    18G11C C09Z  119  23.139  26.862   5.226
    18G11C C09Y  120  23.197  26.737   5.246
    18G11C H00Y  121  23.304  26.723   5.237
    18G11C C09X  122  23.111  26.629   5.279
    18G11C C09W  123  23.174  26.508   5.294
    18G11C H00R  124  23.281  26.491   5.288
    18G11C C0AX  125  23.101  26.397   5.331
    18G11C H00S  126  23.164  26.312   5.351
    18G11C C0AW  127  22.970  26.410   5.362
    18G11C H00T  128  22.918  26.324   5.400
    18G11C C0AN  129  22.898  26.530   5.342
    18G11C C0AO  130  22.750  26.541   5.351
    18G11C C0AM  131  22.971  26.644   5.302
    18G11C C0B2  132  23.243  26.961   5.189
    18G11C O00D  133  23.361  26.941   5.178
    18G11C C0B1  134  23.200  27.091   5.156
    18G11C H00W  135  23.262  27.164   5.105
    18G11C C0AL  136  22.915  26.776   5.279
    18G11C C0AK  137  22.774  26.781   5.290
    18G11C C0B0  138  23.057  27.118   5.169
    18G11C C0AZ  139  22.993  27.240   5.133
    18G11C H00X  140  23.045  27.323   5.088
    18G11C C0AJ  141  22.702  26.909   5.289
    18G11C C0AH  142  22.501  27.022   5.298
    18G11C C0AE  143  22.400  27.264   5.268
    18G11C C0AD  144  22.331  27.383   5.260
    18G11C C0AY  145  22.852  27.230   5.174
    18G11C C0AB  146  22.543  27.465   5.185
    18G11C C0AC  147  22.407  27.489   5.213
    18G11C C0BM  148  22.134  27.526   5.291
    18G11C C0CM  149  21.951  27.898   5.247
    18G11C C09M  150  21.836  27.929   5.325
    18G11C C098  151  21.812  28.066   5.352
    18G11C C08R  152  21.705  28.136   5.416
    18G11C C08Q  153  21.729  28.276   5.443
    18G11C C08P  154  21.655  28.394   5.453
    18G11C C08Y  155  21.719  28.513   5.412
    18G11C C097  156  21.841  28.504   5.347
    18G11C C096  157  21.861  28.592   5.251
    18G11C C090  158  21.742  28.672   5.249
    18G11C C095  159  21.737  28.807   5.198
    18G11C C094  160  21.640  28.903   5.249
    18G11C C08J  161  21.515  28.889   5.330
    18G11C C08I  162  21.513  28.994   5.427
    18G11C C08H  163  21.430  28.966   5.547
    18G11C C08G  164  21.399  28.821   5.529
    18G11C C08F  165  21.314  28.715   5.590
    18G11C C08E  166  21.210  28.751   5.679
    18G11C C059  167  21.150  28.876   5.697
    18G11C C058  168  21.030  28.891   5.771
    18G11C C057  169  20.973  29.010   5.808
    18G11C C056  170  21.032  29.124   5.748
    18G11C C055  171  21.128  29.117   5.658
    18G11C C054  172  21.197  29.240   5.655
    18G11C C053  173  21.139  29.329   5.760
    18G11C C052  174  21.187  29.453   5.819
    18G11C C051  175  21.311  29.511   5.772
    18G11C C05U  176  21.409  29.452   5.679
    18G11C C05T  177  21.428  29.318   5.626
    18G11C C06K  178  21.519  29.338   5.521
    18G11C H00J  179  21.524  29.265   5.442
    18G11C C06L  180  21.588  29.452   5.525
    18G11C H00I  181  21.677  29.476   5.467
    18G11C C05V  182  21.511  29.530   5.617
    18G11C C06J  183  21.534  29.660   5.650
    18G11C H00K  184  21.610  29.719   5.603
    18G11C C05X  185  21.458  29.719   5.751
    18G11C C06I  186  21.469  29.853   5.798
    18G11C H00L  187  21.545  29.912   5.749
    18G11C C04Z  188  21.402  29.911   5.907
    18G11C C06H  189  21.436  30.045   5.949
    18G11C H00H  190  21.513  30.102   5.902
    18G11C C04Y  191  21.371  30.088   6.071
    18G11C C06G  192  21.410  30.211   6.134
    18G11C O009  193  21.506  30.275   6.090
    18G11C O008  194  21.348  30.253   6.251
    18G11C C04P  195  21.259  30.174   6.314
    18G11C C04J  196  21.196  30.204   6.436
    18G11C C04Q  197  21.217  30.322   6.511
    18G11C H00E  198  21.286  30.397   6.478
    18G11C C04M  199  21.163  30.348   6.642
    18G11C C04R  200  21.186  30.461   6.726
    18G11C H00F  201  21.257  30.539   6.698
    18G11C C04S  202  21.135  30.463   6.853
    18G11C H00G  203  21.146  30.551   6.914
    18G11C O007  204  21.062  30.363   6.907
    18G11C C03V  205  21.035  30.257   6.823
    18G11C C03U  206  20.952  30.165   6.879
    18G11C O006  207  20.914  30.182   7.005
    18G11C C03F  208  20.859  30.069   7.067
    18G11C C03E  209  20.805  29.961   6.996
    18G11C C03D  210  20.836  29.949   6.863
    18G11C C03C  211  20.792  29.833   6.791
    18G11C C03B  212  20.713  29.739   6.861
    18G11C C03A  213  20.677  29.622   6.795
    18G11C C039  214  20.710  29.600   6.658
    18G11C C038  215  20.656  29.461   6.641
    18G11C C037  216  20.598  29.432   6.766
    18G11C C036  217  20.521  29.323   6.779
    18G11C C02R  218  20.447  29.282   6.889
    18G11C C035  219  20.408  29.149   6.850
    18G11C C03R  220  20.451  29.117   6.721
    18G11C C03S  221  20.479  28.989   6.671
    18G11C C049  222  20.541  28.983   6.548
    18G11C C048  223  20.594  29.103   6.496
    18G11C C03P  224  20.595  29.234   6.566
    18G11C C047  225  20.652  29.084   6.370
    18G11C C046  226  20.690  29.188   6.282
    18G11C C045  227  20.718  29.321   6.303
    18G11C C03T  228  20.698  29.405   6.412
    18G11C C044  229  20.757  29.532   6.381
    18G11C C043  230  20.787  29.529   6.247
    18G11C C042  231  20.895  29.614   6.218
    18G11C C041  232  20.898  29.694   6.337
    18G11C C040  233  20.968  29.817   6.350
    18G11C C03Z  234  20.973  29.905   6.465
    18G11C C04H  235  21.068  29.998   6.432
    18G11C C04G  236  21.115  29.976   6.305
    18G11C C03N  237  20.916  29.919   6.598
    18G11C C03Y  238  20.958  30.031   6.676
    18G11C C03X  239  21.055  30.128   6.627
    18G11C C04F  240  21.071  29.862   6.255
    18G11C C04E  241  21.127  29.813   6.137
    18G11C C04O  242  21.231  29.889   6.082
    18G11C C04D  243  21.084  29.698   6.066
    18G11C C04V  244  21.161  29.645   5.963
    18G11C C04W  245  21.277  29.710   5.911
    18G11C C04C  246  20.972  29.610   6.090
    18G11C C04L  247  20.992  29.499   5.997
    18G11C C04U  248  20.916  29.383   5.992
    18G11C C05Q  249  20.936  29.278   5.900
    18G11C C05P  250  20.863  29.169   5.949
    18G11C C04T  251  20.794  29.206   6.065
    18G11C C04B  252  20.825  29.339   6.088
    18G11C C03M  253  20.810  29.652   6.448
    18G11C C04A  254  20.775  29.396   6.205
    18G11C C05H  255  20.724  29.128   6.164
    18G11C C05G  256  20.703  28.990   6.175
    18G11C C05F  257  20.728  28.895   6.071
    18G11C C05E  258  20.740  28.752   6.099
    18G11C C05L  259  20.700  28.655   6.204
    18G11C C05K  260  20.635  28.696   6.330
    18G11C C05J  261  20.611  28.831   6.373
    18G11C C066  262  20.588  28.584   6.408
    18G11C C065  263  20.608  28.450   6.375
    18G11C C064  264  20.691  28.416   6.260
    18G11C C06N  265  20.568  28.341   6.452
    18G11C C069  266  20.503  28.369   6.571
    18G11C C06P  267  20.473  28.267   6.664
    18G11C C06R  268  20.433  28.291   6.795
    18G11C C06B  269  20.407  28.421   6.834
    18G11C C06S  270  20.369  28.447   6.964
    18G11C C02G  271  20.354  28.578   7.009
    18G11C C02F  272  20.328  28.607   7.144
    18G11C C027  273  20.314  28.503   7.235
    18G11C C026  274  20.285  28.530   7.370
    18G11C C00E  275  20.278  28.423   7.459
    18G11C C00D  276  20.259  28.451   7.589
    18G11C C00C  277  20.266  28.347   7.673
    18G11C C00B  278  20.294  28.216   7.643
    18G11C C015  279  20.314  28.191   7.506
    18G11C C07F  280  20.340  28.062   7.465
    18G11C C07E  281  20.357  28.036   7.328
    18G11C C06W  282  20.349  28.139   7.236
    18G11C C06V  283  20.329  28.267   7.281
    18G11C C06X  284  20.372  28.107   7.103
    18G11C C07B  285  20.386  27.980   7.064
    18G11C C07C  286  20.391  27.875   7.155
    18G11C C0FU  287  20.419  27.745   7.114
    18G11C C0F7  288  20.429  27.641   7.206
    18G11C C0F6  289  20.448  27.512   7.162
    18G11C C0F8  290  20.451  27.413   7.258
    18G11C C0F9  291  20.467  27.284   7.220
    18G11C C0FA  292  20.477  27.183   7.316
    18G11C C0FZ  293  20.477  27.213   7.449
    18G11C C0G0  294  20.492  27.113   7.546
    18G11C C0GD  295  20.508  26.980   7.504
    18G11C C0FC  296  20.506  26.949   7.370
    18G11C C0GH  297  20.508  26.813   7.331
    18G11C C0EY  298  20.484  26.781   7.198
    18G11C C0EX  299  20.456  26.650   7.154
    18G11C C0EW  300  20.444  26.621   7.018
    18G11C C0FR  301  20.432  26.488   6.977
    18G11C H01D  302  20.417  26.469   6.872
    18G11C C0FS  303  20.428  26.384   7.066
    18G11C H01C  304  20.426  26.288   7.018
    18G11C C0GJ  305  20.446  26.417   7.196
    18G11C H01N  306  20.452  26.334   7.265
    18G11C C0EV  307  20.463  26.720   6.922
    18G11C C0FT  308  20.478  26.691   6.781
    18G11C H01E  309  20.496  26.592   6.744
    18G11C C0EU  310  20.468  26.853   6.968
    18G11C C0ET  311  20.479  26.958   6.880
    18G11C C0EI  312  20.494  27.089   6.911
    18G11C C0F1  313  20.481  27.119   7.043
    18G11C C0F0  314  20.486  27.017   7.137
    18G11C C0EH  315  20.522  27.184   6.809
    18G11C C0EG  316  20.567  27.156   6.675
    18G11C C0EJ  317  20.506  27.319   6.853
    18G11C C0F3  318  20.488  27.350   6.991
    18G11C C0EK  319  20.510  27.423   6.759
    18G11C C0EL  320  20.550  27.393   6.622
    18G11C C0EM  321  20.553  27.518   6.539
    18G11C C0EN  322  20.505  27.636   6.594
    18G11C C07I  323  20.537  27.740   6.505
    18G11C C074  324  20.529  27.877   6.547
    18G11C C073  325  20.568  27.973   6.459
    18G11C C072  326  20.548  28.106   6.498
    18G11C C075  327  20.482  27.899   6.668
    18G11C C076  328  20.454  27.796   6.758
    18G11C C078  329  20.428  27.821   6.889
    18G11C C07G  330  20.469  28.029   6.713
    18G11C C070  331  20.429  28.056   6.842
    18G11C C07Z  332  20.607  27.699   6.397
    18G11C C077  333  20.472  27.661   6.722
    18G11C C0EO  334  20.477  27.552   6.809
    18G11C C0F4  335  20.459  27.584   6.940
    18G11C C0EQ  336  20.511  26.929   6.745
    18G11C C0FQ  337  20.468  26.545   7.244
    18G11C C0GI  338  20.495  26.578   7.381
    18G11C H01L  339  20.484  26.491   7.445
    18G11C C0EZ  340  20.486  26.884   7.105
    18G11C C0GG  341  20.516  26.709   7.426
    18G11C C0GF  342  20.533  26.744   7.561
    18G11C H01M  343  20.528  26.669   7.638
    18G11C C0GE  344  20.523  26.875   7.595
    18G11C H01K  345  20.526  26.896   7.701
    18G11C O00J  346  20.502  27.146   7.679
    18G11C C0GA  347  20.468  27.271   7.712
    18G11C C0G9  348  20.479  27.298   7.849
    18G11C H01H  349  20.504  27.219   7.920
    18G11C C0G8  350  20.452  27.422   7.897
    18G11C C0G7  351  20.439  27.457   8.037
    18G11C H01I  352  20.471  27.386   8.114
    18G11C O00I  353  20.417  27.583   8.075
    18G11C C0G6  354  20.405  27.685   7.989
    18G11C H01J  355  20.410  27.776   8.045
    18G11C C02D  356  20.406  27.655   7.846
    18G11C C02C  357  20.378  27.755   7.754
    18G11C C017  358  20.336  27.882   7.789
    18G11C C016  359  20.331  27.989   7.695
    18G11C O001  360  20.302  27.915   7.918
    18G11C C018  361  20.314  28.045   7.967
    18G11C C009  362  20.303  28.146   7.880
    18G11C C008  363  20.298  28.284   7.914
    18G11C C007  364  20.307  28.362   8.033
    18G11C C006  365  20.365  28.314   8.150
    18G11C C005  366  20.406  28.386   8.264
    18G11C C004  367  20.433  28.531   8.273
    18G11C C003  368  20.417  28.641   8.182
    18G11C C002  369  20.475  28.772   8.214
    18G11C C00P  370  20.467  28.882   8.123
    18G11C C00O  371  20.526  29.003   8.155
    18G11C C00N  372  20.532  29.111   8.065
    18G11C C010  373  20.598  29.230   8.093
    18G11C C011  374  20.615  29.331   7.996
    18G11C C01Q  375  20.697  29.439   8.023
    18G11C C01U  376  20.749  29.461   8.147
    18G11C C012  377  20.734  29.355   8.242
    18G11C H000  378  20.790  29.368   8.334
    18G11C C01V  379  20.824  29.586   8.159
    18G11C H007  380  20.859  29.619   8.256
    18G11C O005  381  20.838  29.680   8.060
    18G11C C01W  382  20.813  29.635   7.935
    18G11C C031  383  20.860  29.711   7.823
    18G11C C032  384  20.848  29.661   7.689
    18G11C H00A  385  20.895  29.709   7.605
    18G11C C033  386  20.763  29.548   7.675
    18G11C H00B  387  20.748  29.507   7.576
    18G11C C01O  388  20.696  29.488   7.783
    18G11C C01N  389  20.594  29.398   7.766
    18G11C C01M  390  20.511  29.390   7.645
    18G11C C01L  391  20.504  29.450   7.508
    18G11C C01K  392  20.431  29.361   7.435
    18G11C C01Y  393  20.426  29.354   7.296
    18G11C C02I  394  20.490  29.451   7.221
    18G11C C02N  395  20.506  29.435   7.077
    18G11C C02M  396  20.577  29.538   7.008
    18G11C C02L  397  20.623  29.652   7.073
    18G11C C02K  398  20.603  29.665   7.214
    18G11C C02U  399  20.645  29.788   7.273
    18G11C C02V  400  20.723  29.879   7.204
    18G11C C03H  401  20.787  29.988   7.273
    18G11C H00C  402  20.793  29.996   7.381
    18G11C C02W  403  20.615  29.815   7.411
    18G11C C02X  404  20.566  29.703   7.478
    18G11C C02Y  405  20.547  29.755   7.613
    18G11C H008  406  20.513  29.696   7.695
    18G11C C02Z  407  20.588  29.897   7.620
    18G11C O004  408  20.591  29.971   7.715
    18G11C O003  409  20.630  29.930   7.496
    18G11C C02J  410  20.546  29.562   7.292
    18G11C C01Z  411  20.380  29.234   7.247
    18G11C C020  412  20.340  29.128   7.333
    18G11C C01I  413  20.329  29.139   7.470
    18G11C C01H  414  20.324  29.042   7.561
    18G11C C00K  415  20.356  29.060   7.696
    18G11C C01S  416  20.407  29.184   7.735
    18G11C C014  417  20.476  29.201   7.854
    18G11C C00J  418  20.352  28.956   7.787
    18G11C C00I  419  20.316  28.831   7.738
    18G11C C00H  420  20.293  28.813   7.600
    18G11C C00G  421  20.274  28.684   7.552
    18G11C C00S  422  20.316  28.725   7.822
    18G11C C00T  423  20.284  28.610   7.771
    18G11C C00U  424  20.277  28.504   7.858
    18G11C C00R  425  20.357  28.738   7.956
    18G11C C00L  426  20.404  28.972   7.914
    18G11C C028  427  20.299  28.915   7.513
    18G11C C023  428  20.296  28.889   7.378
    18G11C C024  429  20.302  28.762   7.328
    18G11C C021  430  20.324  28.995   7.289
    18G11C C022  431  20.347  28.968   7.152
    18G11C C02H  432  20.349  28.839   7.105
    18G11C C030  433  20.374  28.812   6.968
    18G11C C034  434  20.400  28.916   6.882
    18G11C C02P  435  20.376  29.076   7.066
    18G11C C02B  436  20.393  29.213   7.116
    18G11C C01J  437  20.370  29.268   7.518
    18G11C C01X  438  20.545  29.569   7.435
    18G11C C01T  439  20.412  29.293   7.644
    18G11C H009  440  20.902  29.810   7.833
    18G11C C01P  441  20.734  29.517   7.915
    18G11C C01R  442  20.561  29.310   7.869
    18G11C C00Z  443  20.661  29.240   8.221
    18G11C O000  444  20.645  29.146   8.315
    18G11C C00M  445  20.470  29.092   7.944
    18G11C C00Y  446  20.582  29.029   8.282
    18G11C C013  447  20.573  28.925   8.373
    18G11C H001  448  20.620  28.935   8.469
    18G11C C00Q  449  20.408  28.865   7.998
    18G11C C001  450  20.526  28.794   8.340
    18G11C C000  451  20.527  28.690   8.431
    18G11C H006  452  20.574  28.696   8.528
    18G11C C00W  453  20.365  28.630   8.048
    18G11C C01G  454  20.489  28.563   8.398
    18G11C H005  455  20.509  28.488   8.474
    18G11C C01C  456  20.414  28.291   8.372
    18G11C H002  457  20.424  28.310   8.479
    18G11C C01B  458  20.373  28.170   8.321
    18G11C C01D  459  20.354  28.054   8.394
    18G11C H003  460  20.366  28.045   8.501
    18G11C C01E  461  20.325  27.945   8.316
    18G11C H004  462  20.293  27.857   8.371
    18G11C O002  463  20.322  27.941   8.179
    18G11C C01A  464  20.355  28.178   8.184
    18G11C C00V  465  20.318  28.500   7.992
    18G11C C019  466  20.331  28.056   8.109
    18G11C C02E  467  20.388  27.729   7.614
    18G11C C0FX  468  20.418  27.602   7.573
    18G11C C0FW  469  20.420  27.575   7.438
    18G11C C0GB  470  20.429  27.501   7.666
    18G11C C0G3  471  20.369  27.832   7.518
    18G11C C07H  472  20.385  27.803   7.380
    18G11C C0GC  473  20.430  27.525   7.804
    18G11C C0G2  474  20.448  27.375   7.622
    18G11C C0G1  475  20.451  27.345   7.490
    18G11C C0FB  476  20.491  27.049   7.277
    18G11C C0F2  477  20.481  27.250   7.087
    18G11C C0FY  478  20.435  27.442   7.396
    18G11C C0F5  479  20.472  27.482   7.030
    18G11C C0FV  480  20.410  27.673   7.341
    18G11C C079  481  20.433  27.716   6.981
    18G11C C07A  482  20.413  27.952   6.930
    18G11C C06Y  483  20.383  28.214   7.014
    18G11C C07D  484  20.378  27.908   7.289
    18G11C C01F  485  20.347  27.959   7.559
    18G11C C00A  486  20.308  28.118   7.745
    18G11C C00X  487  20.269  28.372   7.811
    18G11C C00F  488  20.266  28.581   7.636
    18G11C C029  489  20.310  28.295   7.416
    18G11C C025  490  20.283  28.654   7.414
    18G11C C06U  491  20.325  28.374   7.192
    18G11C C02A  492  20.320  28.735   7.196
    18G11C C05Y  493  20.389  28.681   6.924
    18G11C C05Z  494  20.425  28.658   6.788
    18G11C C060  495  20.455  28.765   6.703
    18G11C C062  496  20.506  28.744   6.575
    18G11C C06T  497  20.355  28.344   7.060
    18G11C C06A  498  20.438  28.523   6.744
    18G11C C06Z  499  20.412  28.189   6.885
    18G11C C06Q  500  20.496  28.134   6.627
    18G11C C068  501  20.488  28.500   6.615
    18G11C C067  502  20.524  28.609   6.535
    18G11C C063  503  20.737  28.518   6.179
    18G11C C06C  504  20.821  28.482   6.071
    18G11C C06D  505  20.869  28.573   5.983
    18G11C C06E  506  20.969  28.553   5.887
    18G11C C07Q  507  21.009  28.426   5.867
    18G11C C07P  508  20.956  28.323   5.947
    18G11C C07T  509  20.996  28.191   5.928
    18G11C C07U  510  20.933  28.088   6.001
    18G11C C07V  511  20.974  27.960   5.973
    18G11C C084  512  21.076  27.933   5.879
    18G11C C08C  513  21.137  28.039   5.813
    18G11C C08B  514  21.232  28.009   5.720
    18G11C C08A  515  21.278  28.112   5.643
    18G11C C089  516  21.248  28.245   5.660
    18G11C C088  517  21.324  28.343   5.605
    18G11C C087  518  21.284  28.478   5.623
    18G11C C086  519  21.180  28.512   5.711
    18G11C C08X  520  21.438  28.313   5.529
    18G11C C08T  521  21.471  28.174   5.498
    18G11C C08D  522  21.149  28.272   5.751
    18G11C C08U  523  21.389  28.078   5.558
    18G11C C08V  524  21.437  27.954   5.542
    18G11C C0CY  525  21.388  27.853   5.612
    18G11C C0CX  526  21.453  27.730   5.605
    18G11C C0CW  527  21.400  27.628   5.680
    18G11C C0CV  528  21.292  27.652   5.765
    18G11C C0D4  529  21.232  27.778   5.775
    18G11C C0CU  530  21.232  27.551   5.831
    18G11C C0CT  531  21.281  27.418   5.820
    18G11C C0CS  532  21.402  27.401   5.750
    18G11C C0D6  533  21.121  27.578   5.907
    18G11C C0EC  534  21.063  27.705   5.922
    18G11C C07X  535  20.959  27.729   6.020
    18G11C C0DL  536  21.068  27.473   5.977
    18G11C C0DK  537  20.967  27.500   6.066
    18G11C C0DN  538  20.930  27.383   6.115
    18G11C C0D8  539  21.104  27.340   5.972
    18G11C C08W  540  21.561  27.955   5.476
    18G11C C0CQ  541  21.636  27.831   5.467
    18G11C C093  542  21.280  27.880   5.697
    18G11C C092  543  21.122  27.807   5.857
    18G11C C085  544  21.096  28.168   5.831
    18G11C C07S  545  21.116  28.402   5.778
    18G11C C06F  546  21.032  28.657   5.819
    18G11C C07O  547  20.861  28.350   6.050
    18G11C C07N  548  20.804  28.250   6.122
    18G11C C05D  549  20.814  28.697   5.995
    18G11C C05C  550  20.870  28.795   5.918
    18G11C C05N  551  20.824  28.917   5.964
    18G11C C05M  552  20.656  28.955   6.301
    18G11C C05I  553  20.553  28.855   6.498
    18G11C C061  554  20.444  28.888   6.756
    18G11C C02Q  555  20.391  29.042   6.938
    18G11C C02O  556  20.438  29.320   7.028
    18G11C C03Q  557  20.510  29.225   6.677
    18G11C C03O  558  20.652  29.363   6.537
    18G11C C03L  559  20.787  29.696   6.585
    18G11C C02S  560  20.611  29.524   6.870
    18G11C C02T  561  20.687  29.752   6.999
    18G11C C03K  562  20.830  29.816   6.652
    18G11C C03I  563  20.740  29.862   7.065
    18G11C C03G  564  20.859  30.084   7.203
    18G11C H00D  565  20.901  30.165   7.260
    18G11C C03J  566  20.911  30.049   6.804
    18G11C C03W  567  21.082  30.249   6.691
    18G11C C04I  568  21.109  30.114   6.500
    18G11C C04K  569  21.217  30.056   6.253
    18G11C C04N  570  21.274  30.005   6.140
    18G11C C04X  571  21.303  29.836   5.969
    18G11C C050  572  21.349  29.643   5.811
    18G11C C05W  573  21.114  29.523   5.918
    18G11C C05S  574  21.332  29.203   5.633
    18G11C C05R  575  21.034  29.251   5.806
    18G11C C05O  576  20.877  29.032   5.909
    18G11C C05B  577  20.981  28.780   5.831
    18G11C C05A  578  21.207  29.005   5.655
    18G11C C07R  579  21.143  28.641   5.735
    18G11C C08N  580  21.355  28.580   5.562
    18G11C C08M  581  21.471  28.548   5.488
    18G11C C08L  582  21.529  28.649   5.408
    18G11C C091  583  21.339  29.056   5.615
    18G11C C09K  584  21.644  29.060   5.420
    18G11C H00M  585  21.688  29.116   5.501
    18G11C C08K  586  21.471  28.776   5.410
    18G11C C09J  587  21.711  29.018   5.291
    18G11C C09I  588  21.842  29.002   5.241
    18G11C C09L  589  21.952  29.096   5.246
    18G11C H00N  590  21.952  29.193   5.294
    18G11C C09Q  591  22.065  29.063   5.184
    18G11C H00O  592  22.148  29.129   5.205
    18G11C O00B  593  22.092  28.942   5.124
    18G11C C09G  594  21.993  28.842   5.133
    18G11C C09F  595  22.043  28.711   5.116
    18G11C O00A  596  22.166  28.697   5.055
    18G11C C09P  597  22.186  28.575   4.985
    18G11C H00P  598  22.219  28.576   4.882
    18G11C C09O  599  22.134  28.452   5.045
    18G11C C09D  600  22.040  28.468   5.149
    18G11C C09C  601  21.988  28.364   5.240
    18G11C C09N  602  21.998  28.217   5.256
    18G11C C09T  603  22.038  28.138   5.146
    18G11C C09S  604  22.129  28.187   5.048
    18G11C C0CP  605  22.170  28.064   4.988
    18G11C C0CN  606  22.107  27.944   5.038
    18G11C C0CO  607  22.149  27.827   4.978
    18G11C H014  608  22.104  27.732   5.005
    18G11C C0CZ  609  22.262  27.827   4.900
    18G11C H015  610  22.301  27.734   4.864
    18G11C C0D0  611  22.335  27.946   4.863
    18G11C C0G5  612  22.459  27.947   4.787
    18G11C H01F  613  22.504  27.854   4.755
    18G11C C0G4  614  22.513  28.062   4.754
    18G11C H01G  615  22.606  28.064   4.701
    18G11C O00H  616  22.466  28.188   4.793
    18G11C C0D2  617  22.356  28.189   4.869
    18G11C C09V  618  22.302  28.308   4.921
    18G11C H00Q  619  22.356  28.396   4.892
    18G11C C0D1  620  22.286  28.073   4.904
    18G11C C09R  621  22.182  28.318   5.008
    18G11C C09H  622  21.863  28.878   5.179
    18G11C C09E  623  21.982  28.596   5.173
    18G11C C09B  624  21.907  28.389   5.347
    18G11C C08Z  625  21.649  28.611   5.340
    18G11C C08O  626  21.522  28.417   5.493
    18G11C C09A  627  21.866  28.283   5.431
    18G11C C08S  628  21.569  28.095   5.428
    18G11C C099  629  21.912  28.168   5.360
    18G11C C09U  630  22.024  27.988   5.151
    18G11C C0BO  631  22.003  27.543   5.343
    18G11C C0CL  632  21.757  27.819   5.390
    18G11C C0D3  633  21.576  27.721   5.529
    18G11C C0D5  634  21.457  27.506   5.676
    18G11C C0BR  635  21.812  27.454   5.458
    18G11C C0BQ  636  21.936  27.438   5.401
    18G11C C0BL  637  22.196  27.402   5.301
    18G11C C0AF  638  22.313  27.158   5.303
    18G11C C0BH  639  21.987  27.077   5.457
    18G11C C0BG  640  21.926  26.971   5.512
    18G11C C0BD  641  22.100  26.823   5.436
    18G11C C0AG  642  22.361  27.034   5.304
    18G11C C0AI  643  22.563  26.902   5.299
    18G11C C0AV  644  22.694  26.665   5.308
    18G11C C0BB  645  22.344  26.564   5.334
    18G11C O00C  646  22.672  26.434   5.395
    18G11C C0BC  647  22.304  26.453   5.395
    18G11C C0B9  648  22.158  26.688   5.428
    18G11C O00E  649  21.918  26.504   5.625
    18G11C C0CA  650  21.801  26.514   5.685
    18G11C O00F  651  21.762  26.411   5.743
    18G11C C0BF  652  21.982  26.844   5.508
    18G11C C0C5  653  21.738  26.639   5.686
    18G11C C0C4  654  21.611  26.652   5.752
    18G11C H011  655  21.563  26.577   5.813
    18G11C C0C8  656  21.810  26.989   5.581
    18G11C C0C2  657  21.555  26.780   5.749
    18G11C C0C3  658  21.447  26.813   5.834
    18G11C C0DY  659  21.369  26.722   5.914
    18G11C H016  660  21.384  26.618   5.937
    18G11C C0DX  661  21.290  26.804   5.996
    18G11C C0DW  662  21.286  26.775   6.139
    18G11C C0BY  663  21.628  27.131   5.660
    18G11C C0DB  664  21.395  26.938   5.851
    18G11C C0CC  665  21.453  27.274   5.744
    18G11C C0D7  666  21.223  27.310   5.895
    18G11C C0DZ  667  21.296  26.943   5.953
    18G11C C0DM  668  21.013  27.277   6.064
    18G11C C0DQ  669  21.107  26.948   6.184
    18G11C C0DV  670  21.185  26.836   6.218
    18G11C C0E0  671  21.329  26.647   6.212
    18G11C C0FO  672  21.080  26.456   6.358
    18G11C C0E3  673  21.340  26.510   6.163
    18G11C H017  674  21.364  26.476   6.064
    18G11C C0GV  675  21.082  26.337   6.295
    18G11C C0ES  676  20.956  26.521   6.379
    18G11C C0GQ  677  20.731  26.248   6.282
    18G11C C0FJ  678  20.472  26.474   6.430
    18G11C C0ED  679  20.696  26.637   6.445
    18G11C C0ER  680  20.512  26.797   6.703
    18G11C C0EP  681  20.572  27.014   6.657
    18G11C C0E6  682  20.818  26.861   6.416
    18G11C C0DE  683  20.808  27.142   6.284
    18G11C C0EA  684  20.597  27.258   6.583
    18G11C C0DF  685  20.761  27.276   6.257
    18G11C C080  686  20.598  27.555   6.412
    18G11C C0DO  687  20.821  27.386   6.195
    18G11C C0DJ  688  20.905  27.624   6.085
    18G11C C07K  689  20.666  27.803   6.311
    18G11C C07W  690  20.912  27.856   6.043
    18G11C C083  691  20.836  28.119   6.093
    18G11C C07J  692  20.638  27.936   6.342
    18G11C C06O  693  20.593  28.206   6.420
    18G11C C06M  694  20.722  28.283   6.231
  30.00000  30.00000  30.00000   0.00000   0.00000   0.00000   0.00000   0.00000   0.00000
