; Include forcefield parameters
#include "oplsaa.ff/forcefield.itp"
#include "../Ion_test.ff/ffnonbonded_AMBER-IOD.itp"
; include itp files
;#include "S400D.atp"
;#include "S400D-3.atp"

[ atomtypes ]
   ppg_AAA    C0    12.0110     0.000    A    3.55000E-01   2.92880E-01
   ppg_AAB    C1    12.0110     0.000    A    3.55000E-01   3.17984E-01
   ppg_AAC    C2    12.0110     0.000    A    3.50000E-01   3.34720E-01
   ppg_AAD    N3    14.0070     0.000    A    3.25000E-01   7.11280E-01
   ppg_AAE    C4    12.0110     0.000    A    3.50000E-01   2.76144E-01
   ppg_AAF    O5    15.9990     0.000    A    2.90000E-01   5.85760E-01
   ppg_AAG    H6     1.0080     0.000    A    2.50000E-01   1.25520E-01
   ppg_AAH    O7    15.9990     0.000    A    3.12000E-01   7.11280E-01
   ppg_AAI    H8     1.0080     0.000    A    0.00000E+00   0.00000E+00
   ppg_AAJ    H9     1.0080     0.000    A    2.42000E-01   1.25520E-01
   ppg_AAK   C10    12.0110     0.000    A    3.50000E-01   2.76144E-01
   ppg_AAL   C11    12.0110     0.000    A    3.55000E-01   2.92880E-01
   ppg_AAM   C12    12.0110     0.000    A    3.50000E-01   3.34720E-01
   ppg_AAN   N13    14.0070     0.000    A    3.25000E-01   7.11280E-01
   ppg_AAO   H14     1.0080     0.000    A    0.00000E+00   0.00000E+00
   ppg_AAP   O15    15.9990     0.000    A    2.90000E-01   5.85760E-01
   ppg_AAQ   C16    12.0110     0.000    A    3.55000E-01   3.17984E-01
   ppg_AAR   O17    15.9990     0.000    A    3.12000E-01   7.11280E-01
   ppg_AAS   H18     1.0080     0.000    A    2.42000E-01   1.25520E-01
   ppg_AAT   H19     1.0080     0.000    A    2.50000E-01   1.25520E-01
   r400_AAA    C0    12.0110     0.000    A    3.55000E-01   3.17984E-01
   r400_AAB    C1    12.0110     0.000    A    3.55000E-01   2.92880E-01
   r400_AAC    C2    12.0110     0.000    A    3.50000E-01   3.34720E-01
   r400_AAD    H3     1.0080     0.000    A    2.42000E-01   1.25520E-01
   r400_AAE    C4    12.0110     0.000    A    3.50000E-01   2.76144E-01
   r400_AAF    O5    15.9990     0.000    A    2.90000E-01   5.85760E-01
   r400_AAG    H6     1.0080     0.000    A    2.50000E-01   1.25520E-01
   r400_AAH    O7    15.9990     0.000    A    3.12000E-01   7.11280E-01
   r400_AAI    H8     1.0080     0.000    A    0.00000E+00   0.00000E+00
   r400_AAJ    H9     1.0080     0.000    A    2.50000E-01   1.25520E-01
   r400_AAK   C10    12.0110     0.000    A    3.50000E-01   2.76144E-01
   r400_AAL   O11    15.9990     0.000    A    2.90000E-01   5.85760E-01
   r400_AAM   C12    12.0110     0.000    A    3.55000E-01   2.92880E-01
   r400_AAN   C13    12.0110     0.000    A    3.55000E-01   3.17984E-01
   r400_AAO   O14    15.9990     0.000    A    3.12000E-01   7.11280E-01
   r400_AAP   H15     1.0080     0.000    A    0.00000E+00   0.00000E+00
   r400_AAQ   C16    12.0110     0.000    A    3.50000E-01   3.34720E-01
   r400_AAR   H17     1.0080     0.000    A    2.42000E-01   1.25520E-01


#include "S400D.itp"
#include "S400D_dp.itp"
#include "S400D-3.itp"
#include "S400D-3_dp.itp"
#include "oplsaa.ff/spc.itp"
#include "../Ion_test.ff/ions.itp"
; include name of the system
[ system ]
; Name
S400D in water

[ molecules ]
; Compound        #mols
4G12c    1
4G12d    1
4G12c    1
4G12c    1
4G12d    1
4G12c    1
4G12c    1
4G12c    1
4G12c    1
4G12c    1
4G12c    1
4G12c    1
4G12c    1
4G12c    1
4G12c    1
4G12c    1
4G12c    1
4G12c    1
4G12c    1
4G12c    1
4G12c    1
4G12c    1
4G12d    1
4G12d    1
4G12d    1
4G12c    1
4G12c    1
4G12c    1
4G12c    1
4G12c    1
4G12d    1
4G12c    1
4G12c    1
4G12c    1
4G12c    1
4G12c    1
4G12c    1
4G12c    1
4G12c    1
4G12c    1
4G12d    1
4G12c    1
4G12c    1
4G12c    1
4G12c    1
4G12c    1
4G12c    1
4G12c    1
4G12d    1
4G12c    1
4G12c    1
4G12c    1
4G12c    1
4G12c    1
4G12c    1
4G12c    1
4G12c    1
4G12c    1
4G12c    1
4G12c    1
4G12c    1
4G12c    1
4G12c    1
4G12c    1
4G12c    1
4G12c    1
4G12c    1
4G12d    1
4G12c    1
4G12c    1
4G12c    1
4G12d    1
4G12c    1
4G12d    1
4G12c    1
4G12c    1
4G12d    1
4G12c    1
4G12c    1
4G12c    1
4G12c    1
4G12c    1
4G12d    1
4G12d    1
4G12c    1
4G12c    1
4G12d    1
4G12c    1
4G12c    1
4G12c    1
4G12c    1
4G12d    1
4G12d    1
4G12c    1
4G12c    1
4G12d    1
4G12d    1
4G12c    1
4G12c    1
4G12c    1
4G12c    1
4G12c    1
4G12d    1
4G12c    1
4G12c    1
4G12c    1
4G12c    1
4G12d    1
4G12c    1
4G12c    1
4G12c    1
4G12d    1
4G12c    1
4G12c    1
4G12c    1
4G12c    1
4G12c    1
4G12c    1
4G12c    1
4G12c    1
4G12c    1
4G12c    1
4G12d    1
4G12c    1
4G12c    1
4G12c    1
4G12c    1
4G12c    1
4G12c    1
4G12c    1
4G12d    1
4G12c    1
4G12c    1
4G12c    1
4G12c    1
4G12c    1
4G12d    1
4G12c    1
4G12c    1
4G12d    1
4G12d    1
4G12d    1
4G12d    1
4G12c    1
4G12c    1
4G12c    1
4G12c    1
4G12c    1
4G12c    1
4G12c    1
4G12c    1
4G12c    1
4G12c    1
4G12c    1
4G12c    1
4G12c    1
4G12c    1
4G12d    1
4G12c    1
4G12d    1
4G12c    1
4G12c    1
4G12c    1
4G12c    1
4G12c    1
4G12c    1
4G12c    1
4G12d    1
4G12c    1
4G12c    1
4G12c    1
4G12c    1
4G12c    1
4G12c    1
4G12c    1
4G12d    1
4G12d    1
4G12c    1
4G12c    1
4G12c    1
4G12c    1
4G12c    1
4G12d    1
4G12c    1
4G12c    1
4G12d    1
4G12c    1
4G12c    1
4G12d    1
4G12c    1
4G12d    1
4G12c    1
4G12c    1
4G12c    1
4G12c    1
4G12c    1
4G12d    1
4G12c    1
4G12c    1
4G12d    1
4G12d    1
4G12d    1
4G12c    1
4G12c    1
4G12c    1
4G12c    1
4G12c    1
4G12c    1
4G12c    1
4G12c    1
4G12d    1
4G12c    1
4G12d    1
4G12c    1
4G12c    1
4G12c    1
4G12c    1
4G12d    1
4G12d    1
4G12c    1
4G12c    1
4G12c    1
4G12c    1
4G12d    1
4G12c    1
4G12d    1
4G12c    1
4G12c    1
4G12c    1
4G12c    1
4G12d    1
4G12c    1
4G12d    1
4G12d    1
4G12c    1
4G12d    1
4G12d    1
4G12c    1
4G12c    1
4G12d    1
4G12c    1
4G12c    1
4G12c    1
4G12c    1
4G12c    1
4G12d    1
4G12d    1
4G12c    1
4G12c    1
4G12c    1
4G12c    1
4G12c    1
4G12c    1
4G12d    1
4G12d    1
4G12c    1
4G12c    1
4G12d    1
4G12c    1
4G12c    1
4G12d    1
4G12d    1
4G12d    1
4G12c    1
4G12c    1
4G12c    1
4G12c    1
4G12c    1
4G12d    1
4G12d    1
4G12d    1
4G12c    1
4G12c    1
4G12c    1
4G12c    1
4G12c    1
4G12c    1
4G12c    1
4G12c    1
4G12c    1
4G12d    1
4G12c    1
4G12c    1
4G12c    1
4G12c    1
4G12d    1
4G12c    1
4G12c    1
4G12c    1
4G12c    1
4G12c    1
4G12c    1
4G12c    1
4G12d    1
4G12c    1
4G12c    1
4G12c    1
4G12c    1
4G12c    1
4G12c    1
NB4     1
NB4     1
NB4     1
NB4     1
NB4     1
NB4     1
NB4     1
NB4     1
NB4     1
NB4     1
NB4     1
NB4d     1
NB4     1
NB4     1
NB4     1
NB4     1
NB4     1
NB4     1
NB4     1
NB4     1
NB4     1
NB4     1
NB4     1
NB4     1
NB4     1
NB4     1
NB4     1
NB4d     1
NB4d     1
NB4     1
NB4d     1
NB4     1
NB4     1
NB4     1
NB4     1
NB4d     1
NB4     1
NB4     1
NB4     1
NB4d     1
NB4     1
NB4     1
NB4     1
NB4     1
NB4     1
NB4     1
NB4     1
NB4     1
NB4d     1
NB4d     1
NB4     1
NB4     1
NB4     1
NB4d     1
NB4     1
NB4     1
NB4     1
NB4     1
NB4d     1
NB4     1
NB4d     1
NB4     1
NB4     1
NB4     1
NB4     1
NB4     1
NB4     1
NB4     1
NB4d     1
NB4     1
NB4     1
NB4     1
NB4     1
NB4d     1
NB4d     1
NB4     1
NB4     1
NB4     1
NB4     1
NB4     1
NB4d     1
NB4d     1
NB4     1
NB4     1
NB4     1
NB4     1
NB4     1
NB4     1
NB4     1
NB4     1
NB4     1
NB4     1
NB4     1
NB4     1
NB4     1
NB4d     1
NB4     1
NB4d     1
NB4d     1
NB4     1
NB4     1
NB4     1
NB4     1
NB4     1
NB4     1
NB4     1
NB4     1
NB4d     1
NB4     1
NB4     1
NB4d     1
NB4     1
NB4     1
NB4     1
NB4     1
NB4     1
NB4     1
NB4     1
NB4     1
NB4     1
NB4d     1
NB4     1
NB4     1
NB4     1
NB4     1
NB4     1
NB4     1
NB4     1
NB4     1
NB4     1
NB4     1
NB4     1
NB4     1
NB4     1
NB4     1
NB4     1
NB4d     1
NB4     1
NB4     1
NB4d     1
NB4     1
NB4     1
NB4d     1
NB4     1
NB4     1
NB4d     1
NB4     1
NB4     1
NB4     1
NB4     1
NB4     1
NB4     1
NB4d     1
NB4     1
NB4d     1
NB4     1
NB4     1
NB4     1
NB4     1
NB4     1
NB4     1
NB4     1
NB4d     1
NB4     1
NB4d     1
NB4     1
NB4     1
NB4     1
NB4     1
NB4d     1
NB4     1
NB4     1
NB4     1
NB4     1
NB4     1
NB4     1
NB4     1
NB4d     1
NB4     1
NB4     1
NB4d     1
NB4     1
NB4     1
NB4     1
NB4     1
NB4     1
NB4     1
NB4d     1
NB4d     1
NB4     1
NB4d     1
NB4     1
NB4     1
NB4     1
NB4     1
NB4d     1
NB4     1
NB4d     1
NB4     1
NB4     1
NB4     1
NB4     1
NB4     1
NB4     1
NB4d     1
NB4     1
NB4     1
NB4     1
NB4     1
NB4     1
NB4     1
NB4     1
NB4     1
NB4     1
NB4     1
NB4d     1
NB4     1
NB4     1
NB4     1
NB4     1
NB4     1
NB4     1
NB4     1
NB4     1
NB4     1
NB4     1
NB4     1
NB4d     1
NB4     1
NB4     1
NB4     1
NB4     1
NB4     1
NB4     1
NB4     1
NB4     1
NB4d     1
NB4     1
NB4     1
NB4     1
NB4d     1
NB4     1
NB4     1
NB4d     1
NB4     1
NB4d     1
NB4     1
NB4     1
NB4d     1
NB4     1
NB4d     1
NB4     1
NB4     1
NB4     1
NB4     1
NB4     1
NB4     1
NB4     1
NB4     1
NB4     1
NB4d     1
NB4     1
NB4     1
NB4     1
NB4     1
NB4d     1
NB4d     1
NB4d     1
NB4     1
NB4     1
NB4     1
NB4d     1
NB4d     1
NB4     1
NB4     1
NB4     1
NB4     1
NB4     1
NB4     1
NB4     1
NB4     1
NB4     1
NB4     1
NB4d     1
NB4     1
NB4     1
NB4     1
NB4     1
NB4     1
NB4     1
NB4     1
NB4     1
NB4     1
NB4     1
NB4d     1
NB4     1
NB4     1
NB4     1
NB4     1
NB4d     1
SOL              8449
SOL              8449

SOL             18188
SOL         17937
Mn               104
CL               84
