; Topology file for N-containing Biochar Molecular Building Block S800 
; by Audrey Ngambia, Valentina Erastova
; U of Edinburgh, 2025
; https://github.com/Erastova-group/Mn_Biochar


[ moleculetype ]
; Name               nrexcl
SBC                   3

[ atoms ]
;   nr       type  resnr residue  atom   cgnr     charge       mass  
     1    ppg_AAA      1    SBC   C069      1    -0.0079    12.0110
     2    ppg_AAA      1    SBC   C06B      1    -0.0131    12.0110
     3    ppg_AAA      1    SBC   C06C      1     0.0375    12.0110
     4    ppg_AAA      1    SBC   C06D      1     0.0013    12.0110
     5    ppg_AAA      1    SBC   C06E      1    -0.0065    12.0110
     6    ppg_AAA      1    SBC   C06F      1     0.1312    12.0110
     7    ppg_AAE      1    SBC   C06G      1    -0.0331    12.0110
     8    ppg_AAB      1    SBC   C06O      1     0.0329    12.0110
     9    ppg_AAB      1    SBC   C05L      1    -0.2206    12.0110
    10    ppg_AAE      1    SBC   C05K      1     0.1282    12.0110
    11    ppg_AAE      1    SBC   C05M      1    -0.0535    12.0110
    12    ppg_AAB      1    SBC   C05N      1     0.2096    12.0110
    13    ppg_AAE      1    SBC   C05F      1    -0.0384    12.0110
    14    ppg_AAE      1    SBC   C05E      1    -0.0019    12.0110
    15    ppg_AAE      1    SBC   C05H      1     0.0020    12.0110
    16    ppg_AAA      1    SBC   C05R      1    -0.0231    12.0110
    17    ppg_AAE      1    SBC   C05S      1    -0.0914    12.0110
    18    ppg_AAC      1    SBC   H00M      1     0.1552     1.0080
    19    ppg_AAE      1    SBC   C07X      1    -0.1530    12.0110
    20    ppg_AAC      1    SBC   H00P      1     0.1536     1.0080
    21    ppg_AAE      1    SBC   C07Y      1    -0.0877    12.0110
    22    ppg_AAC      1    SBC   H00O      1     0.1435     1.0080
    23    ppg_AAA      1    SBC   C07Z      1    -0.0885    12.0110
    24    ppg_AAB      1    SBC   C07V      1     0.0466    12.0110
    25    ppg_AAC      1    SBC   H00T      1     0.2161     1.0080
    26    ppg_AAF      1    SBC   O008      1    -0.1903    15.9990
    27    ppg_AAE      1    SBC   C07W      1     0.0890    12.0110
    28    ppg_AAA      1    SBC   C07Q      1     0.0550    12.0110
    29    ppg_AAD      1    SBC   N006      1    -0.1061    14.0070
    30    ppg_AAA      1    SBC   C07M      1     0.0884    12.0110
    31    ppg_AAA      1    SBC   C07L      1    -0.0676    12.0110
    32    ppg_AAA      1    SBC   C07K      1     0.0103    12.0110
    33    ppg_AAA      1    SBC   C082      1    -0.1016    12.0110
    34    ppg_AAE      1    SBC   C083      1     0.1657    12.0110
    35    ppg_AAE      1    SBC   C084      1    -0.1896    12.0110
    36    ppg_AAC      1    SBC   H00R      1     0.1585     1.0080
    37    ppg_AAE      1    SBC   C085      1    -0.0820    12.0110
    38    ppg_AAC      1    SBC   H00Q      1     0.1503     1.0080
    39    ppg_AAE      1    SBC   C0EK      1    -0.1872    12.0110
    40    ppg_AAC      1    SBC   H01J      1     0.1484     1.0080
    41    ppg_AAF      1    SBC   O009      1    -0.2209    15.9990
    42    ppg_AAA      1    SBC   C081      1     0.0492    12.0110
    43    ppg_AAE      1    SBC   C080      1    -0.1531    12.0110
    44    ppg_AAC      1    SBC   H00S      1     0.1538     1.0080
    45    ppg_AAE      1    SBC   C07I      1     0.0805    12.0110
    46    ppg_AAB      1    SBC   C07H      1    -0.1950    12.0110
    47    ppg_AAB      1    SBC   C07G      1    -0.0534    12.0110
    48    ppg_AAB      1    SBC   C07F      2    -0.1209    12.0110
    49    ppg_AAE      1    SBC   C06X      2     0.1393    12.0110
    50    ppg_AAE      1    SBC   C06W      2    -0.0179    12.0110
    51    ppg_AAE      1    SBC   C07P      2    -0.0340    12.0110
    52    ppg_AAE      1    SBC   C05P      2    -0.1070    12.0110
    53    ppg_AAE      1    SBC   C063      2    -0.1174    12.0110
    54    ppg_AAE      1    SBC   C06V      2     0.0014    12.0110
    55    ppg_AAB      1    SBC   C062      2    -0.0460    12.0110
    56    ppg_AAB      1    SBC   C071      2    -0.0845    12.0110
    57    ppg_AAE      1    SBC   C070      2    -0.0210    12.0110
    58    ppg_AAE      1    SBC   C079      2     0.1484    12.0110
    59    ppg_AAA      1    SBC   C078      2    -0.0399    12.0110
    60    ppg_AAA      1    SBC   C07U      2    -0.0285    12.0110
    61    ppg_AAA      1    SBC   C0AE      2     0.0635    12.0110
    62    ppg_AAA      1    SBC   C08U      2    -0.0821    12.0110
    63    ppg_AAA      1    SBC   C08T      2     0.1312    12.0110
    64    ppg_AAD      1    SBC   N007      2    -0.0902    14.0070
    65    ppg_AAA      1    SBC   C08S      2     0.1942    12.0110
    66    ppg_AAA      1    SBC   C09L      2    -0.2054    12.0110
    67    ppg_AAE      1    SBC   C08P      2     0.2798    12.0110
    68    ppg_AAA      1    SBC   C08O      2    -0.0182    12.0110
    69    ppg_AAE      1    SBC   C08N      2     0.1161    12.0110
    70    ppg_AAE      1    SBC   C08M      2    -0.2443    12.0110
    71    ppg_AAC      1    SBC   H00X      2     0.1680     1.0080
    72    ppg_AAE      1    SBC   C08L      2     0.0147    12.0110
    73    ppg_AAC      1    SBC   H00Y      2     0.1535     1.0080
    74    ppg_AAB      1    SBC   C08K      2    -0.2240    12.0110
    75    ppg_AAE      1    SBC   C09A      2     0.3810    12.0110
    76    ppg_AAE      1    SBC   C099      2    -0.2478    12.0110
    77    ppg_AAA      1    SBC   C098      2     0.0826    12.0110
    78    ppg_AAA      1    SBC   C097      2    -0.0403    12.0110
    79    ppg_AAA      1    SBC   C096      2     0.1025    12.0110
    80    ppg_AAA      1    SBC   C09H      2    -0.0550    12.0110
    81    ppg_AAA      1    SBC   C095      2    -0.0546    12.0110
    82    ppg_AAA      1    SBC   C094      2     0.0532    12.0110
    83    ppg_AAA      1    SBC   C093      2    -0.0117    12.0110
    84    ppg_AAA      1    SBC   C09P      2    -0.0242    12.0110
    85    ppg_AAA      1    SBC   C09Z      2     0.0217    12.0110
    86    ppg_AAA      1    SBC   C0AL      2    -0.0152    12.0110
    87    ppg_AAA      1    SBC   C09Q      2    -0.0082    12.0110
    88    ppg_AAA      1    SBC   C0AK      2    -0.0085    12.0110
    89    ppg_AAA      1    SBC   C09R      2    -0.0052    12.0110
    90    ppg_AAA      1    SBC   C0AJ      2    -0.0069    12.0110
    91    ppg_AAA      1    SBC   C0AH      2     0.0141    12.0110
    92    ppg_AAA      1    SBC   C0AG      2    -0.0680    12.0110
    93    ppg_AAA      1    SBC   C0AI      2    -0.0177    12.0110
    94    ppg_AAA      1    SBC   C0B1      2     0.0009    12.0110
    95    ppg_AAA      1    SBC   C0AV      3    -0.0178    12.0110
    96    ppg_AAA      1    SBC   C0B0      3    -0.0453    12.0110
    97    ppg_AAA      1    SBC   C0AS      3     0.0356    12.0110
    98    ppg_AAA      1    SBC   C0AZ      3     0.0441    12.0110
    99    ppg_AAE      1    SBC   C0AY      3    -0.2418    12.0110
   100    ppg_AAA      1    SBC   C0AQ      3     0.0639    12.0110
   101    ppg_AAA      1    SBC   C0BC      3    -0.1664    12.0110
   102    ppg_AAB      1    SBC   C0BB      3     0.0960    12.0110
   103    ppg_AAC      1    SBC   H012      3     0.2127     1.0080
   104    ppg_AAF      1    SBC   O00E      3    -0.1894    15.9990
   105    ppg_AAE      1    SBC   C0BA      3     0.2013    12.0110
   106    ppg_AAE      1    SBC   C0B9      3    -0.1286    12.0110
   107    ppg_AAE      1    SBC   C0B8      3    -0.1177    12.0110
   108    ppg_AAC      1    SBC   H013      3     0.1588     1.0080
   109    ppg_AAE      1    SBC   C0B7      3    -0.1737    12.0110
   110    ppg_AAC      1    SBC   H014      3     0.1600     1.0080
   111    ppg_AAE      1    SBC   C0B6      3    -0.0125    12.0110
   112    ppg_AAA      1    SBC   C0B5      3     0.0646    12.0110
   113    ppg_AAE      1    SBC   C0B4      3    -0.1602    12.0110
   114    ppg_AAC      1    SBC   H015      3     0.1518     1.0080
   115    ppg_AAB      1    SBC   C0B3      3     0.0098    12.0110
   116    ppg_AAC      1    SBC   H016      3     0.1675     1.0080
   117    ppg_AAA      1    SBC   C0B2      3    -0.1959    12.0110
   118    ppg_AAE      1    SBC   C0A4      3    -0.0402    12.0110
   119    ppg_AAE      1    SBC   C0A3      3    -0.0595    12.0110
   120    ppg_AAB      1    SBC   C0A2      3     0.1144    12.0110
   121    ppg_AAE      1    SBC   C0AD      3    -0.0373    12.0110
   122    ppg_AAA      1    SBC   C0AX      3     0.0633    12.0110
   123    ppg_AAA      1    SBC   C09W      3     0.0628    12.0110
   124    ppg_AAA      1    SBC   C09V      3     0.0391    12.0110
   125    ppg_AAE      1    SBC   C09U      3     0.0110    12.0110
   126    ppg_AAE      1    SBC   C09T      3    -0.0884    12.0110
   127    ppg_AAA      1    SBC   C09X      3     0.0099    12.0110
   128    ppg_AAA      1    SBC   C0A0      3    -0.0607    12.0110
   129    ppg_AAB      1    SBC   C0A1      3    -0.0077    12.0110
   130    ppg_AAE      1    SBC   C09S      3    -0.0494    12.0110
   131    ppg_AAA      1    SBC   C09F      3     0.0613    12.0110
   132    ppg_AAA      1    SBC   C0A6      3    -0.0738    12.0110
   133    ppg_AAD      1    SBC   N008      3     0.2405    14.0070
   134    ppg_AAA      1    SBC   C09C      3    -0.0239    12.0110
   135    ppg_AAE      1    SBC   C09D      3    -0.0726    12.0110
   136    ppg_AAC      1    SBC   H00W      3     0.2091     1.0080
   137    ppg_AAE      1    SBC   C0A7      3    -0.0188    12.0110
   138    ppg_AAC      1    SBC   H011      3     0.1601     1.0080
   139    ppg_AAE      1    SBC   C0A8      3    -0.2681    12.0110
   140    ppg_AAC      1    SBC   H00Z      3     0.1835     1.0080
   141    ppg_AAE      1    SBC   C09B      3     0.0655    12.0110
   142    ppg_AAA      1    SBC   C0A9      4     0.1101    12.0110
   143    ppg_AAB      1    SBC   C0AA      4    -0.2283    12.0110
   144    ppg_AAC      1    SBC   H010      4     0.2012     1.0080
   145    ppg_AAA      1    SBC   C0AB      4    -0.0201    12.0110
   146    ppg_AAA      1    SBC   C0A5      4     0.0498    12.0110
   147    ppg_AAE      1    SBC   C0AC      4     0.4011    12.0110
   148    ppg_AAG      1    SBC   O00D      4    -0.4360    15.9990
   149    ppg_AAE      1    SBC   C0BF      4    -0.1035    12.0110
   150    ppg_AAE      1    SBC   C0BE      4    -0.1116    12.0110
   151    ppg_AAA      1    SBC   C0BD      4    -0.0980    12.0110
   152    ppg_AAA      1    SBC   C0AN      4     0.0621    12.0110
   153    ppg_AAA      1    SBC   C0AP      4    -0.0787    12.0110
   154    ppg_AAC      1    SBC   H017      4     0.1536     1.0080
   155    ppg_AAE      1    SBC   C0BH      4     0.0797    12.0110
   156    ppg_AAE      1    SBC   C0BI      4     0.0745    12.0110
   157    ppg_AAE      1    SBC   C0BU      4     0.0295    12.0110
   158    ppg_AAB      1    SBC   C0BV      4     0.0326    12.0110
   159    ppg_AAE      1    SBC   C0C5      4    -0.0738    12.0110
   160    ppg_AAA      1    SBC   C0CM      4     0.1187    12.0110
   161    ppg_AAE      1    SBC   C0CY      4    -0.0611    12.0110
   162    ppg_AAE      1    SBC   C0D9      4    -0.0585    12.0110
   163    ppg_AAE      1    SBC   C0DC      4    -0.1001    12.0110
   164    ppg_AAB      1    SBC   C0DB      4     0.1281    12.0110
   165    ppg_AAB      1    SBC   C0DM      4     0.0319    12.0110
   166    ppg_AAB      1    SBC   C0DO      4    -0.0135    12.0110
   167    ppg_AAB      1    SBC   C0DE      4    -0.1529    12.0110
   168    ppg_AAB      1    SBC   C0DN      4    -0.2556    12.0110
   169    ppg_AAB      1    SBC   C0D3      4     0.2520    12.0110
   170    ppg_AAE      1    SBC   C0D2      4    -0.1742    12.0110
   171    ppg_AAA      1    SBC   C0D1      4     0.0908    12.0110
   172    ppg_AAA      1    SBC   C0DF      4     0.0347    12.0110
   173    ppg_AAA      1    SBC   C0DG      4     0.0193    12.0110
   174    ppg_AAA      1    SBC   C0DW      4    -0.0220    12.0110
   175    ppg_AAA      1    SBC   C0E4      4    -0.0322    12.0110
   176    ppg_AAE      1    SBC   C0E3      4    -0.0317    12.0110
   177    ppg_AAB      1    SBC   C0E2      4    -0.1726    12.0110
   178    ppg_AAB      1    SBC   C0E7      4    -0.1461    12.0110
   179    ppg_AAE      1    SBC   C0E6      4     0.0600    12.0110
   180    ppg_AAE      1    SBC   C0EF      4     0.0691    12.0110
   181    ppg_AAA      1    SBC   C0EE      4     0.0429    12.0110
   182    ppg_AAE      1    SBC   C0EA      4    -0.1522    12.0110
   183    ppg_AAB      1    SBC   C0E9      4     0.1297    12.0110
   184    ppg_AAE      1    SBC   C0ED      4    -0.2100    12.0110
   185    ppg_AAC      1    SBC   H01E      4     0.1624     1.0080
   186    ppg_AAE      1    SBC   C0EC      4    -0.0978    12.0110
   187    ppg_AAC      1    SBC   H01F      4     0.1687     1.0080
   188    ppg_AAE      1    SBC   C0EB      4    -0.0693    12.0110
   189    ppg_AAE      1    SBC   C0GS      5    -0.0022    12.0110
   190    ppg_AAC      1    SBC   H01P      5     0.1620     1.0080
   191    ppg_AAA      1    SBC   C0GJ      5    -0.0532    12.0110
   192    ppg_AAE      1    SBC   C0FA      5    -0.0704    12.0110
   193    ppg_AAC      1    SBC   H01K      5     0.1636     1.0080
   194    ppg_AAA      1    SBC   C0F9      5    -0.0478    12.0110
   195    ppg_AAB      1    SBC   C0F8      5    -0.0118    12.0110
   196    ppg_AAC      1    SBC   H01L      5     0.1755     1.0080
   197    ppg_AAA      1    SBC   C0F7      5    -0.1484    12.0110
   198    ppg_AAE      1    SBC   C0F6      5     0.5414    12.0110
   199    ppg_AAG      1    SBC   O00J      5    -0.4032    15.9990
   200    ppg_AAF      1    SBC   O00I      5    -0.3144    15.9990
   201    ppg_AAE      1    SBC   C0F5      5     0.2507    12.0110
   202    ppg_AAA      1    SBC   C0F4      5    -0.1173    12.0110
   203    ppg_AAE      1    SBC   C0GD      5    -0.0788    12.0110
   204    ppg_AAC      1    SBC   H01M      5     0.1680     1.0080
   205    ppg_AAA      1    SBC   C0GE      5    -0.0598    12.0110
   206    ppg_AAB      1    SBC   C0GF      5    -0.2604    12.0110
   207    ppg_AAC      1    SBC   H01N      5     0.1673     1.0080
   208    ppg_AAB      1    SBC   C0GK      5     0.0079    12.0110
   209    ppg_AAC      1    SBC   H01O      5     0.2041     1.0080
   210    ppg_AAF      1    SBC   O00K      5    -0.2264    15.9990
   211    ppg_AAE      1    SBC   C0GH      5     0.0710    12.0110
   212    ppg_AAE      1    SBC   C0GI      5     0.1617    12.0110
   213    ppg_AAF      1    SBC   O00L      5    -0.2271    15.9990
   214    ppg_AAE      1    SBC   C0GL      5     0.1434    12.0110
   215    ppg_AAA      1    SBC   C0EY      5    -0.0747    12.0110
   216    ppg_AAA      1    SBC   C0EX      5    -0.0089    12.0110
   217    ppg_AAA      1    SBC   C0EW      5     0.0047    12.0110
   218    ppg_AAA      1    SBC   C0G2      5     0.0184    12.0110
   219    ppg_AAE      1    SBC   C0G1      5    -0.0764    12.0110
   220    ppg_AAE      1    SBC   C0G0      5    -0.0595    12.0110
   221    ppg_AAE      1    SBC   C0FZ      5    -0.1079    12.0110
   222    ppg_AAE      1    SBC   C0G3      5     0.0182    12.0110
   223    ppg_AAE      1    SBC   C0G4      5    -0.0626    12.0110
   224    ppg_AAE      1    SBC   C03F      5    -0.0177    12.0110
   225    ppg_AAE      1    SBC   C0GU      5    -0.1164    12.0110
   226    ppg_AAE      1    SBC   C0G6      5    -0.0596    12.0110
   227    ppg_AAA      1    SBC   C0GT      5     0.0318    12.0110
   228    ppg_AAA      1    SBC   C0FW      5    -0.0171    12.0110
   229    ppg_AAA      1    SBC   C0FV      5     0.0757    12.0110
   230    ppg_AAA      1    SBC   C0FX      5     0.0121    12.0110
   231    ppg_AAE      1    SBC   C0FU      5    -0.0015    12.0110
   232    ppg_AAE      1    SBC   C0FT      5    -0.0622    12.0110
   233    ppg_AAE      1    SBC   C0G8      5    -0.0002    12.0110
   234    ppg_AAE      1    SBC   C0G7      5    -0.0499    12.0110
   235    ppg_AAB      1    SBC   C0ES      5    -0.0674    12.0110
   236    ppg_AAB      1    SBC   C0ER      6    -0.2063    12.0110
   237    ppg_AAB      1    SBC   C0EQ      6     0.1219    12.0110
   238    ppg_AAB      1    SBC   C0EP      6     0.0558    12.0110
   239    ppg_AAB      1    SBC   C0EO      6     0.0274    12.0110
   240    ppg_AAA      1    SBC   C0EN      6    -0.1678    12.0110
   241    ppg_AAD      1    SBC   N009      6     0.2550    14.0070
   242    ppg_AAA      1    SBC   C0EM      6    -0.0898    12.0110
   243    ppg_AAA      1    SBC   C0F1      6     0.0594    12.0110
   244    ppg_AAA      1    SBC   C0F0      6     0.0274    12.0110
   245    ppg_AAA      1    SBC   C0F2      6    -0.0548    12.0110
   246    ppg_AAE      1    SBC   C0FE      6    -0.1234    12.0110
   247    ppg_AAA      1    SBC   C0FD      6     0.1317    12.0110
   248    ppg_AAA      1    SBC   C0FC      6    -0.0229    12.0110
   249    ppg_AAE      1    SBC   C0FF      6     0.0345    12.0110
   250    ppg_AAE      1    SBC   C0FG      6    -0.0633    12.0110
   251    ppg_AAA      1    SBC   C0FH      6     0.0332    12.0110
   252    ppg_AAB      1    SBC   C0FM      6    -0.0884    12.0110
   253    ppg_AAB      1    SBC   C0FL      6     0.0705    12.0110
   254    ppg_AAB      1    SBC   C0FK      6     0.0791    12.0110
   255    ppg_AAE      1    SBC   C0FJ      6    -0.0356    12.0110
   256    ppg_AAE      1    SBC   C0FQ      6    -0.0792    12.0110
   257    ppg_AAE      1    SBC   C0FP      6     0.0136    12.0110
   258    ppg_AAE      1    SBC   C0FO      6    -0.1045    12.0110
   259    ppg_AAE      1    SBC   C0ET      6     0.0671    12.0110
   260    ppg_AAE      1    SBC   C0G9      6     0.0501    12.0110
   261    ppg_AAE      1    SBC   C0FS      6    -0.0601    12.0110
   262    ppg_AAB      1    SBC   C0GB      6     0.0947    12.0110
   263    ppg_AAB      1    SBC   C0GQ      6     0.0822    12.0110
   264    ppg_AAE      1    SBC   C0GR      6    -0.0703    12.0110
   265    ppg_AAA      1    SBC   C08A      6     0.0792    12.0110
   266    ppg_AAA      1    SBC   C089      6    -0.0189    12.0110
   267    ppg_AAA      1    SBC   C08J      6     0.0662    12.0110
   268    ppg_AAA      1    SBC   C088      6     0.0058    12.0110
   269    ppg_AAA      1    SBC   C087      6    -0.0296    12.0110
   270    ppg_AAA      1    SBC   C086      6    -0.0107    12.0110
   271    ppg_AAA      1    SBC   C06T      6     0.0149    12.0110
   272    ppg_AAA      1    SBC   C08H      6     0.0107    12.0110
   273    ppg_AAA      1    SBC   C00D      6    -0.0106    12.0110
   274    ppg_AAA      1    SBC   C00C      6     0.0148    12.0110
   275    ppg_AAA      1    SBC   C00B      6    -0.0068    12.0110
   276    ppg_AAA      1    SBC   C00A      6     0.0066    12.0110
   277    ppg_AAA      1    SBC   C009      6    -0.0018    12.0110
   278    ppg_AAA      1    SBC   C008      6     0.0198    12.0110
   279    ppg_AAA      1    SBC   C007      6    -0.0261    12.0110
   280    ppg_AAA      1    SBC   C006      6     0.0292    12.0110
   281    ppg_AAA      1    SBC   C005      6    -0.0220    12.0110
   282    ppg_AAA      1    SBC   C004      6     0.0177    12.0110
   283    ppg_AAA      1    SBC   C003      7    -0.0173    12.0110
   284    ppg_AAA      1    SBC   C002      7     0.0404    12.0110
   285    ppg_AAA      1    SBC   C00K      7    -0.0121    12.0110
   286    ppg_AAA      1    SBC   C00L      7    -0.0840    12.0110
   287    ppg_AAA      1    SBC   C00M      7     0.0392    12.0110
   288    ppg_AAA      1    SBC   C00H      7     0.0013    12.0110
   289    ppg_AAA      1    SBC   C00I      7     0.0025    12.0110
   290    ppg_AAA      1    SBC   C00G      7     0.0057    12.0110
   291    ppg_AAA      1    SBC   C00P      7    -0.0310    12.0110
   292    ppg_AAA      1    SBC   C00O      7    -0.0072    12.0110
   293    ppg_AAA      1    SBC   C045      7     0.0185    12.0110
   294    ppg_AAA      1    SBC   C044      7    -0.0838    12.0110
   295    ppg_AAA      1    SBC   C04B      7     0.0546    12.0110
   296    ppg_AAA      1    SBC   C04C      7    -0.0133    12.0110
   297    ppg_AAA      1    SBC   C04H      7     0.0014    12.0110
   298    ppg_AAD      1    SBC   N005      7     0.1910    14.0070
   299    ppg_AAA      1    SBC   C04G      7     0.0026    12.0110
   300    ppg_AAE      1    SBC   C04K      7     0.1010    12.0110
   301    ppg_AAA      1    SBC   C04L      7     0.0264    12.0110
   302    ppg_AAA      1    SBC   C04U      7    -0.0592    12.0110
   303    ppg_AAA      1    SBC   C04T      7     0.0053    12.0110
   304    ppg_AAA      1    SBC   C04X      7    -0.0569    12.0110
   305    ppg_AAE      1    SBC   C056      7    -0.1204    12.0110
   306    ppg_AAC      1    SBC   H00H      7     0.1498     1.0080
   307    ppg_AAA      1    SBC   C055      7    -0.0260    12.0110
   308    ppg_AAA      1    SBC   C054      7    -0.0058    12.0110
   309    ppg_AAA      1    SBC   C053      7    -0.0002    12.0110
   310    ppg_AAE      1    SBC   C059      7    -0.1335    12.0110
   311    ppg_AAC      1    SBC   H00I      7     0.1453     1.0080
   312    ppg_AAE      1    SBC   C058      7    -0.1342    12.0110
   313    ppg_AAC      1    SBC   H00J      7     0.1469     1.0080
   314    ppg_AAA      1    SBC   C052      7    -0.0397    12.0110
   315    ppg_AAE      1    SBC   C05A      7    -0.0714    12.0110
   316    ppg_AAC      1    SBC   H00L      7     0.1493     1.0080
   317    ppg_AAA      1    SBC   C051      7    -0.0254    12.0110
   318    ppg_AAA      1    SBC   C050      7     0.0139    12.0110
   319    ppg_AAA      1    SBC   C04P      7    -0.0401    12.0110
   320    ppg_AAA      1    SBC   C04O      7     0.0313    12.0110
   321    ppg_AAA      1    SBC   C04Q      7    -0.0369    12.0110
   322    ppg_AAA      1    SBC   C04Z      7    -0.0363    12.0110
   323    ppg_AAA      1    SBC   C05I      7     0.0355    12.0110
   324    ppg_AAA      1    SBC   C04M      7     0.0350    12.0110
   325    ppg_AAA      1    SBC   C04A      7     0.0531    12.0110
   326    ppg_AAA      1    SBC   C05C      7    -0.0392    12.0110
   327    ppg_AAA      1    SBC   C05U      7     0.0900    12.0110
   328    ppg_AAE      1    SBC   C05W      7    -0.0676    12.0110
   329    ppg_AAE      1    SBC   C05Z      7    -0.0520    12.0110
   330    ppg_AAE      1    SBC   C05Y      8    -0.0432    12.0110
   331    ppg_AAA      1    SBC   C065      8    -0.0075    12.0110
   332    ppg_AAA      1    SBC   C066      8     0.0067    12.0110
   333    ppg_AAA      1    SBC   C067      8    -0.0189    12.0110
   334    ppg_AAA      1    SBC   C064      8    -0.0087    12.0110
   335    ppg_AAA      1    SBC   C04J      8     0.0144    12.0110
   336    ppg_AAA      1    SBC   C04I      8    -0.0051    12.0110
   337    ppg_AAA      1    SBC   C03X      8     0.0364    12.0110
   338    ppg_AAA      1    SBC   C02E      8    -0.0219    12.0110
   339    ppg_AAE      1    SBC   C05X      8    -0.1258    12.0110
   340    ppg_AAA      1    SBC   C05V      8    -0.0150    12.0110
   341    ppg_AAA      1    SBC   C048      8     0.0105    12.0110
   342    ppg_AAA      1    SBC   C047      8    -0.0325    12.0110
   343    ppg_AAE      1    SBC   C05B      8    -0.0959    12.0110
   344    ppg_AAA      1    SBC   C04R      8     0.0056    12.0110
   345    ppg_AAE      1    SBC   C057      8    -0.1240    12.0110
   346    ppg_AAC      1    SBC   H00K      8     0.1455     1.0080
   347    ppg_AAE      1    SBC   C04W      8    -0.0838    12.0110
   348    ppg_AAC      1    SBC   H00F      8     0.1568     1.0080
   349    ppg_AAA      1    SBC   C04S      8     0.0112    12.0110
   350    ppg_AAE      1    SBC   C04V      8    -0.1180    12.0110
   351    ppg_AAC      1    SBC   H00G      8     0.1614     1.0080
   352    ppg_AAF      1    SBC   O007      8    -0.2217    15.9990
   353    ppg_AAE      1    SBC   C041      8     0.1802    12.0110
   354    ppg_AAE      1    SBC   C040      8    -0.2205    12.0110
   355    ppg_AAC      1    SBC   H00D      8     0.1728     1.0080
   356    ppg_AAB      1    SBC   C03Z      8     0.0921    12.0110
   357    ppg_AAB      1    SBC   C03Y      8    -0.1299    12.0110
   358    ppg_AAC      1    SBC   H00E      8     0.2178     1.0080
   359    ppg_AAF      1    SBC   O006      8    -0.2395    15.9990
   360    ppg_AAB      1    SBC   C00V      8     0.0720    12.0110
   361    ppg_AAC      1    SBC   H000      8     0.2368     1.0080
   362    ppg_AAB      1    SBC   C00U      8    -0.0179    12.0110
   363    ppg_AAA      1    SBC   C00T      8    -0.0494    12.0110
   364    ppg_AAE      1    SBC   C00W      8     0.2154    12.0110
   365    ppg_AAA      1    SBC   C029      8    -0.1210    12.0110
   366    ppg_AAF      1    SBC   O000      8    -0.2764    15.9990
   367    ppg_AAE      1    SBC   C00X      8    -0.0903    12.0110
   368    ppg_AAA      1    SBC   C000      8     0.0385    12.0110
   369    ppg_AAE      1    SBC   C012      8    -0.0390    12.0110
   370    ppg_AAB      1    SBC   C011      8     0.1142    12.0110
   371    ppg_AAB      1    SBC   C010      8     0.0395    12.0110
   372    ppg_AAE      1    SBC   C023      8    -0.0256    12.0110
   373    ppg_AAA      1    SBC   C022      8     0.0022    12.0110
   374    ppg_AAA      1    SBC   C021      8     0.0135    12.0110
   375    ppg_AAA      1    SBC   C02M      8    -0.0426    12.0110
   376    ppg_AAD      1    SBC   N002      8     0.1736    14.0070
   377    ppg_AAA      1    SBC   C02I      9    -0.0175    12.0110
   378    ppg_AAA      1    SBC   C02O      9     0.0422    12.0110
   379    ppg_AAA      1    SBC   C02U      9    -0.1353    12.0110
   380    ppg_AAD      1    SBC   N003      9     0.2620    14.0070
   381    ppg_AAA      1    SBC   C02Y      9    -0.0072    12.0110
   382    ppg_AAA      1    SBC   C02X      9    -0.0980    12.0110
   383    ppg_AAE      1    SBC   C02W      9    -0.1563    12.0110
   384    ppg_AAC      1    SBC   H008      9     0.1783     1.0080
   385    ppg_AAB      1    SBC   C02Z      9     0.0436    12.0110
   386    ppg_AAC      1    SBC   H007      9     0.2317     1.0080
   387    ppg_AAF      1    SBC   O005      9    -0.2088    15.9990
   388    ppg_AAE      1    SBC   C03S      9     0.1507    12.0110
   389    ppg_AAE      1    SBC   C03T      9    -0.1648    12.0110
   390    ppg_AAE      1    SBC   C03U      9    -0.0964    12.0110
   391    ppg_AAC      1    SBC   H00B      9     0.1693     1.0080
   392    ppg_AAE      1    SBC   C03V      9    -0.1329    12.0110
   393    ppg_AAC      1    SBC   H00C      9     0.1770     1.0080
   394    ppg_AAA      1    SBC   C037      9    -0.0102    12.0110
   395    ppg_AAA      1    SBC   C036      9     0.1415    12.0110
   396    ppg_AAE      1    SBC   C035      9    -0.0636    12.0110
   397    ppg_AAE      1    SBC   C034      9     0.1142    12.0110
   398    ppg_AAE      1    SBC   C033      9    -0.0755    12.0110
   399    ppg_AAA      1    SBC   C039      9    -0.0033    12.0110
   400    ppg_AAA      1    SBC   C03A      9    -0.0264    12.0110
   401    ppg_AAA      1    SBC   C03D      9    -0.0422    12.0110
   402    ppg_AAA      1    SBC   C03K      9     0.1075    12.0110
   403    ppg_AAA      1    SBC   C03J      9     0.0586    12.0110
   404    ppg_AAA      1    SBC   C03I      9    -0.0765    12.0110
   405    ppg_AAA      1    SBC   C03N      9     0.0766    12.0110
   406    ppg_AAA      1    SBC   C03O      9    -0.0962    12.0110
   407    ppg_AAE      1    SBC   C0GW      9    -0.0130    12.0110
   408    ppg_AAC      1    SBC   H01R      9     0.1729     1.0080
   409    ppg_AAA      1    SBC   C03P      9    -0.0001    12.0110
   410    ppg_AAE      1    SBC   C03C      9     0.1494    12.0110
   411    ppg_AAE      1    SBC   C03Q      9    -0.4167    12.0110
   412    ppg_AAC      1    SBC   H009      9     0.1992     1.0080
   413    ppg_AAE      1    SBC   C03R      9     0.4867    12.0110
   414    ppg_AAG      1    SBC   O004      9    -0.4419    15.9990
   415    ppg_AAF      1    SBC   O003      9    -0.2357    15.9990
   416    ppg_AAA      1    SBC   C03B      9     0.1263    12.0110
   417    ppg_AAA      1    SBC   C038      9     0.0158    12.0110
   418    ppg_AAA      1    SBC   C01I      9    -0.0258    12.0110
   419    ppg_AAA      1    SBC   C031      9    -0.0446    12.0110
   420    ppg_AAA      1    SBC   C01G      9     0.0374    12.0110
   421    ppg_AAA      1    SBC   C02Q      9    -0.0123    12.0110
   422    ppg_AAA      1    SBC   C02R      9     0.0154    12.0110
   423    ppg_AAA      1    SBC   C02S      9     0.0324    12.0110
   424    ppg_AAA      1    SBC   C018     10     0.0611    12.0110
   425    ppg_AAA      1    SBC   C017     10    -0.0298    12.0110
   426    ppg_AAA      1    SBC   C019     10    -0.0123    12.0110
   427    ppg_AAA      1    SBC   C01A     10     0.0038    12.0110
   428    ppg_AAA      1    SBC   C016     10     0.0272    12.0110
   429    ppg_AAA      1    SBC   C015     10     0.0866    12.0110
   430    ppg_AAE      1    SBC   C014     10    -0.0718    12.0110
   431    ppg_AAA      1    SBC   C01Y     10    -0.1222    12.0110
   432    ppg_AAA      1    SBC   C02H     10    -0.0599    12.0110
   433    ppg_AAA      1    SBC   C01F     10     0.0302    12.0110
   434    ppg_AAA      1    SBC   C01E     10    -0.0440    12.0110
   435    ppg_AAA      1    SBC   C01D     10     0.0481    12.0110
   436    ppg_AAA      1    SBC   C01H     10     0.0179    12.0110
   437    ppg_AAA      1    SBC   C01J     10    -0.0435    12.0110
   438    ppg_AAA      1    SBC   C01W     10     0.0203    12.0110
   439    ppg_AAA      1    SBC   C01O     10    -0.0079    12.0110
   440    ppg_AAA      1    SBC   C01N     10     0.0104    12.0110
   441    ppg_AAA      1    SBC   C01K     10     0.0749    12.0110
   442    ppg_AAA      1    SBC   C01L     10    -0.0294    12.0110
   443    ppg_AAE      1    SBC   C032     10    -0.0849    12.0110
   444    ppg_AAD      1    SBC   N004     10    -0.1934    14.0070
   445    ppg_AAE      1    SBC   C03G     10    -0.0750    12.0110
   446    ppg_AAC      1    SBC   H00A     10     0.1728     1.0080
   447    ppg_AAA      1    SBC   C03H     10    -0.0684    12.0110
   448    ppg_AAA      1    SBC   C02T     10    -0.0643    12.0110
   449    ppg_AAE      1    SBC   C02V     10     0.1460    12.0110
   450    ppg_AAF      1    SBC   O002     10    -0.2113    15.9990
   451    ppg_AAA      1    SBC   C030     10    -0.0389    12.0110
   452    ppg_AAE      1    SBC   C02J     10     0.2355    12.0110
   453    ppg_AAE      1    SBC   C02K     10    -0.2686    12.0110
   454    ppg_AAC      1    SBC   H005     10     0.1753     1.0080
   455    ppg_AAA      1    SBC   C01Z     10     0.0858    12.0110
   456    ppg_AAA      1    SBC   C02L     10     0.0554    12.0110
   457    ppg_AAE      1    SBC   C02N     10    -0.2340    12.0110
   458    ppg_AAC      1    SBC   H004     10     0.1610     1.0080
   459    ppg_AAA      1    SBC   C020     10     0.0554    12.0110
   460    ppg_AAA      1    SBC   C02G     10     0.0298    12.0110
   461    ppg_AAE      1    SBC   C02F     10    -0.1611    12.0110
   462    ppg_AAC      1    SBC   H003     10     0.1537     1.0080
   463    ppg_AAE      1    SBC   C02P     10    -0.0971    12.0110
   464    ppg_AAC      1    SBC   H006     10     0.1430     1.0080
   465    ppg_AAE      1    SBC   C024     10    -0.1227    12.0110
   466    ppg_AAE      1    SBC   C025     10     0.0166    12.0110
   467    ppg_AAB      1    SBC   C026     10    -0.2115    12.0110
   468    ppg_AAC      1    SBC   H001     10     0.1819     1.0080
   469    ppg_AAB      1    SBC   C027     10     0.0646    12.0110
   470    ppg_AAC      1    SBC   H002     10     0.2242     1.0080
   471    ppg_AAF      1    SBC   O001     11    -0.2015    15.9990
   472    ppg_AAE      1    SBC   C00Z     11    -0.2100    12.0110
   473    ppg_AAE      1    SBC   C028     11    -0.0140    12.0110
   474    ppg_AAE      1    SBC   C00Y     11     0.3476    12.0110
   475    ppg_AAA      1    SBC   C00S     11     0.0202    12.0110
   476    ppg_AAA      1    SBC   C02A     11     0.0140    12.0110
   477    ppg_AAA      1    SBC   C043     11     0.2186    12.0110
   478    ppg_AAA      1    SBC   C04E     11    -0.0063    12.0110
   479    ppg_AAA      1    SBC   C00R     11    -0.0209    12.0110
   480    ppg_AAA      1    SBC   C00Q     11     0.0404    12.0110
   481    ppg_AAD      1    SBC   N000     11    -0.3282    14.0070
   482    ppg_AAA      1    SBC   C042     11    -0.1510    12.0110
   483    ppg_AAA      1    SBC   C04F     11    -0.0897    12.0110
   484    ppg_AAA      1    SBC   C04Y     11     0.0365    12.0110
   485    ppg_AAA      1    SBC   C04N     11    -0.0884    12.0110
   486    ppg_AAA      1    SBC   C04D     11     0.0380    12.0110
   487    ppg_AAA      1    SBC   C049     11    -0.0563    12.0110
   488    ppg_AAA      1    SBC   C02B     11     0.0781    12.0110
   489    ppg_AAA      1    SBC   C046     11     0.0037    12.0110
   490    ppg_AAA      1    SBC   C03W     11     0.0208    12.0110
   491    ppg_AAA      1    SBC   C00F     11    -0.0076    12.0110
   492    ppg_AAA      1    SBC   C00N     11    -0.0586    12.0110
   493    ppg_AAD      1    SBC   N001     11     0.2883    14.0070
   494    ppg_AAA      1    SBC   C001     11    -0.1176    12.0110
   495    ppg_AAE      1    SBC   C013     11    -0.0927    12.0110
   496    ppg_AAA      1    SBC   C01B     11    -0.0577    12.0110
   497    ppg_AAA      1    SBC   C00J     11     0.0126    12.0110
   498    ppg_AAA      1    SBC   C01C     11     0.0152    12.0110
   499    ppg_AAA      1    SBC   C02C     11    -0.0033    12.0110
   500    ppg_AAA      1    SBC   C01X     11    -0.0280    12.0110
   501    ppg_AAA      1    SBC   C01P     11     0.0075    12.0110
   502    ppg_AAA      1    SBC   C01Q     11    -0.0063    12.0110
   503    ppg_AAA      1    SBC   C01R     11     0.0128    12.0110
   504    ppg_AAA      1    SBC   C01T     11     0.0396    12.0110
   505    ppg_AAA      1    SBC   C02D     11     0.0103    12.0110
   506    ppg_AAA      1    SBC   C01U     11     0.0049    12.0110
   507    ppg_AAA      1    SBC   C00E     11     0.0109    12.0110
   508    ppg_AAA      1    SBC   C06U     11     0.0220    12.0110
   509    ppg_AAA      1    SBC   C01V     11     0.0339    12.0110
   510    ppg_AAA      1    SBC   C08I     11    -0.0293    12.0110
   511    ppg_AAA      1    SBC   C08B     11     0.0021    12.0110
   512    ppg_AAA      1    SBC   C08C     11     0.0003    12.0110
   513    ppg_AAA      1    SBC   C0CZ     11     0.0138    12.0110
   514    ppg_AAA      1    SBC   C0CR     11    -0.0161    12.0110
   515    ppg_AAA      1    SBC   C0CQ     11    -0.0617    12.0110
   516    ppg_AAA      1    SBC   C08E     11    -0.0135    12.0110
   517    ppg_AAA      1    SBC   C0C9     11    -0.0222    12.0110
   518    ppg_AAA      1    SBC   C08G     12    -0.0156    12.0110
   519    ppg_AAA      1    SBC   C06N     12     0.0347    12.0110
   520    ppg_AAA      1    SBC   C0C8     12    -0.0106    12.0110
   521    ppg_AAA      1    SBC   C0C7     12     0.0065    12.0110
   522    ppg_AAA      1    SBC   C0C1     12    -0.0057    12.0110
   523    ppg_AAA      1    SBC   C0C6     12     0.0149    12.0110
   524    ppg_AAA      1    SBC   C0CB     12    -0.0011    12.0110
   525    ppg_AAA      1    SBC   C0CO     12    -0.0173    12.0110
   526    ppg_AAA      1    SBC   C0CU     12     0.0528    12.0110
   527    ppg_AAA      1    SBC   C0CT     12    -0.0434    12.0110
   528    ppg_AAA      1    SBC   C0CC     12     0.0597    12.0110
   529    ppg_AAE      1    SBC   C0BX     12    -0.0443    12.0110
   530    ppg_AAA      1    SBC   C0CP     12    -0.0820    12.0110
   531    ppg_AAE      1    SBC   C0BY     12    -0.0401    12.0110
   532    ppg_AAE      1    SBC   C0BS     12    -0.0678    12.0110
   533    ppg_AAA      1    SBC   C0BR     12     0.0151    12.0110
   534    ppg_AAA      1    SBC   C0BM     12    -0.0429    12.0110
   535    ppg_AAA      1    SBC   C0BN     12     0.0353    12.0110
   536    ppg_AAA      1    SBC   C0BQ     12    -0.0197    12.0110
   537    ppg_AAA      1    SBC   C0C2     12    -0.0289    12.0110
   538    ppg_AAA      1    SBC   C0BP     12     0.0118    12.0110
   539    ppg_AAA      1    SBC   C077     12     0.0109    12.0110
   540    ppg_AAA      1    SBC   C0AW     12    -0.0230    12.0110
   541    ppg_AAA      1    SBC   C074     12    -0.0205    12.0110
   542    ppg_AAA      1    SBC   C0C4     12    -0.0466    12.0110
   543    ppg_AAA      1    SBC   C06L     12     0.0471    12.0110
   544    ppg_AAE      1    SBC   C073     12     0.0101    12.0110
   545    ppg_AAE      1    SBC   C06J     12    -0.1177    12.0110
   546    ppg_AAE      1    SBC   C06I     12    -0.1386    12.0110
   547    ppg_AAE      1    SBC   C075     12    -0.1261    12.0110
   548    ppg_AAE      1    SBC   C0BT     12    -0.0406    12.0110
   549    ppg_AAA      1    SBC   C0BK     12     0.0714    12.0110
   550    ppg_AAA      1    SBC   C0C0     12     0.0029    12.0110
   551    ppg_AAA      1    SBC   C0C3     12    -0.0081    12.0110
   552    ppg_AAA      1    SBC   C0CA     12     0.0476    12.0110
   553    ppg_AAA      1    SBC   C0CS     12     0.0731    12.0110
   554    ppg_AAA      1    SBC   C0D0     12    -0.0087    12.0110
   555    ppg_AAA      1    SBC   C08D     12    -0.0038    12.0110
   556    ppg_AAA      1    SBC   C08F     12     0.0126    12.0110
   557    ppg_AAE      1    SBC   C0GO     12    -0.0549    12.0110
   558    ppg_AAE      1    SBC   C0GN     12    -0.0272    12.0110
   559    ppg_AAE      1    SBC   C0GM     12    -0.0871    12.0110
   560    ppg_AAE      1    SBC   C0GA     12    -0.1082    12.0110
   561    ppg_AAA      1    SBC   C0GP     12    -0.0085    12.0110
   562    ppg_AAA      1    SBC   C01S     12     0.0013    12.0110
   563    ppg_AAA      1    SBC   C01M     12     0.0327    12.0110
   564    ppg_AAA      1    SBC   C03E     12     0.1678    12.0110
   565    ppg_AAE      1    SBC   C0G5     13    -0.0719    12.0110
   566    ppg_AAE      1    SBC   C0FY     13     0.1656    12.0110
   567    ppg_AAE      1    SBC   C0EU     13     0.0894    12.0110
   568    ppg_AAE      1    SBC   C03L     13    -0.1330    12.0110
   569    ppg_AAA      1    SBC   C03M     13    -0.0376    12.0110
   570    ppg_AAA      1    SBC   C0EV     13    -0.0082    12.0110
   571    ppg_AAA      1    SBC   C0GV     13     0.0401    12.0110
   572    ppg_AAE      1    SBC   C0GX     13    -0.2056    12.0110
   573    ppg_AAC      1    SBC   H01Q     13     0.1715     1.0080
   574    ppg_AAA      1    SBC   C0EZ     13    -0.1131    12.0110
   575    ppg_AAA      1    SBC   C0GG     13     0.0073    12.0110
   576    ppg_AAA      1    SBC   C0F3     13     0.1238    12.0110
   577    ppg_AAA      1    SBC   C0EL     13    -0.0583    12.0110
   578    ppg_AAA      1    SBC   C0GC     13     0.0193    12.0110
   579    ppg_AAA      1    SBC   C0FB     13    -0.0109    12.0110
   580    ppg_AAA      1    SBC   C0FI     13    -0.0071    12.0110
   581    ppg_AAE      1    SBC   C0FN     13    -0.0402    12.0110
   582    ppg_AAB      1    SBC   C0E8     13     0.1464    12.0110
   583    ppg_AAE      1    SBC   C0E5     13    -0.0330    12.0110
   584    ppg_AAA      1    SBC   C0FR     13     0.1251    12.0110
   585    ppg_AAA      1    SBC   C0DH     13    -0.0031    12.0110
   586    ppg_AAE      1    SBC   C0DV     13     0.0514    12.0110
   587    ppg_AAA      1    SBC   C0CX     13     0.0292    12.0110
   588    ppg_AAA      1    SBC   C0CV     13    -0.0988    12.0110
   589    ppg_AAA      1    SBC   C0CW     13    -0.0090    12.0110
   590    ppg_AAA      1    SBC   C0D5     13     0.0572    12.0110
   591    ppg_AAB      1    SBC   C0DU     13    -0.0347    12.0110
   592    ppg_AAE      1    SBC   C0DQ     13     0.1583    12.0110
   593    ppg_AAC      1    SBC   H019     13     0.1380     1.0080
   594    ppg_AAE      1    SBC   C0D4     13     0.0745    12.0110
   595    ppg_AAB      1    SBC   C0DP     13    -0.2355    12.0110
   596    ppg_AAE      1    SBC   C0DR     13     0.1356    12.0110
   597    ppg_AAB      1    SBC   C0DS     13    -0.3066    12.0110
   598    ppg_AAC      1    SBC   H01B     13     0.1709     1.0080
   599    ppg_AAB      1    SBC   C0DT     13     0.1482    12.0110
   600    ppg_AAC      1    SBC   H01A     13     0.2073     1.0080
   601    ppg_AAF      1    SBC   O00G     13    -0.2456    15.9990
   602    ppg_AAE      1    SBC   C0DK     13     0.3444    12.0110
   603    ppg_AAE      1    SBC   C0DJ     13    -0.0622    12.0110
   604    ppg_AAF      1    SBC   O00F     13    -0.2323    15.9990
   605    ppg_AAE      1    SBC   C0DI     13     0.3015    12.0110
   606    ppg_AAE      1    SBC   C0DX     13    -0.2428    12.0110
   607    ppg_AAC      1    SBC   H01C     13     0.1755     1.0080
   608    ppg_AAE      1    SBC   C0DY     13    -0.0184    12.0110
   609    ppg_AAC      1    SBC   H01D     13     0.1663     1.0080
   610    ppg_AAA      1    SBC   C0DZ     13    -0.1342    12.0110
   611    ppg_AAA      1    SBC   C0D6     13     0.1696    12.0110
   612    ppg_AAE      1    SBC   C0CI     14    -0.1111    12.0110
   613    ppg_AAB      1    SBC   C0CH     14     0.0406    12.0110
   614    ppg_AAB      1    SBC   C0CG     14     0.0806    12.0110
   615    ppg_AAE      1    SBC   C0CF     14    -0.0046    12.0110
   616    ppg_AAA      1    SBC   C0D8     14     0.0321    12.0110
   617    ppg_AAE      1    SBC   C0CJ     14    -0.0504    12.0110
   618    ppg_AAE      1    SBC   C0CK     14    -0.0703    12.0110
   619    ppg_AAE      1    SBC   C0CL     14     0.0022    12.0110
   620    ppg_AAC      1    SBC   H018     14     0.1635     1.0080
   621    ppg_AAE      1    SBC   C0EJ     14    -0.2055    12.0110
   622    ppg_AAC      1    SBC   H01H     14     0.1566     1.0080
   623    ppg_AAA      1    SBC   C0EH     14     0.0347    12.0110
   624    ppg_AAB      1    SBC   C0EI     14    -0.2160    12.0110
   625    ppg_AAC      1    SBC   H01I     14     0.1782     1.0080
   626    ppg_AAB      1    SBC   C0EG     14     0.0487    12.0110
   627    ppg_AAC      1    SBC   H01G     14     0.2329     1.0080
   628    ppg_AAF      1    SBC   O00H     14    -0.2082    15.9990
   629    ppg_AAA      1    SBC   C0E1     14    -0.0874    12.0110
   630    ppg_AAE      1    SBC   C0E0     14     0.2459    12.0110
   631    ppg_AAA      1    SBC   C0D7     14    -0.1371    12.0110
   632    ppg_AAE      1    SBC   C0DL     14    -0.2072    12.0110
   633    ppg_AAA      1    SBC   C0DD     14     0.0989    12.0110
   634    ppg_AAE      1    SBC   C0CE     14    -0.0959    12.0110
   635    ppg_AAE      1    SBC   C0DA     14    -0.0263    12.0110
   636    ppg_AAA      1    SBC   C0CN     14     0.0029    12.0110
   637    ppg_AAB      1    SBC   C0CD     14    -0.0248    12.0110
   638    ppg_AAB      1    SBC   C0BW     14     0.0562    12.0110
   639    ppg_AAB      1    SBC   C0BZ     14    -0.1131    12.0110
   640    ppg_AAE      1    SBC   C0BJ     14    -0.0230    12.0110
   641    ppg_AAA      1    SBC   C0AR     14     0.0176    12.0110
   642    ppg_AAA      1    SBC   C0BG     14     0.0079    12.0110
   643    ppg_AAA      1    SBC   C0BL     14     0.0123    12.0110
   644    ppg_AAA      1    SBC   C0BO     14     0.0097    12.0110
   645    ppg_AAA      1    SBC   C0AU     14     0.0130    12.0110
   646    ppg_AAA      1    SBC   C0AT     14     0.0123    12.0110
   647    ppg_AAA      1    SBC   C0AO     14    -0.0047    12.0110
   648    ppg_AAA      1    SBC   C09Y     14    -0.0054    12.0110
   649    ppg_AAA      1    SBC   C092     14     0.0268    12.0110
   650    ppg_AAA      1    SBC   C091     14    -0.0491    12.0110
   651    ppg_AAA      1    SBC   C09J     14    -0.0794    12.0110
   652    ppg_AAA      1    SBC   C09O     14     0.0639    12.0110
   653    ppg_AAE      1    SBC   C09N     14    -0.0247    12.0110
   654    ppg_AAA      1    SBC   C09E     14     0.0128    12.0110
   655    ppg_AAE      1    SBC   C09G     14     0.0418    12.0110
   656    ppg_AAF      1    SBC   O00B     14    -0.1972    15.9990
   657    ppg_AAB      1    SBC   C09M     14    -0.1675    12.0110
   658    ppg_AAA      1    SBC   C09I     14     0.0789    12.0110
   659    ppg_AAF      1    SBC   O00A     15    -0.2689    15.9990
   660    ppg_AAE      1    SBC   C08Q     15     0.5100    12.0110
   661    ppg_AAG      1    SBC   O00C     15    -0.4073    15.9990
   662    ppg_AAA      1    SBC   C09K     15     0.0754    12.0110
   663    ppg_AAA      1    SBC   C08R     15    -0.2200    12.0110
   664    ppg_AAA      1    SBC   C08X     15     0.0737    12.0110
   665    ppg_AAE      1    SBC   C08Y     15    -0.2090    12.0110
   666    ppg_AAC      1    SBC   H00U     15     0.1765     1.0080
   667    ppg_AAE      1    SBC   C08Z     15     0.0076    12.0110
   668    ppg_AAC      1    SBC   H00V     15     0.1565     1.0080
   669    ppg_AAE      1    SBC   C07T     15    -0.1145    12.0110
   670    ppg_AAB      1    SBC   C07C     15     0.0247    12.0110
   671    ppg_AAB      1    SBC   C07D     15     0.0941    12.0110
   672    ppg_AAE      1    SBC   C08W     15    -0.0115    12.0110
   673    ppg_AAA      1    SBC   C090     15     0.0826    12.0110
   674    ppg_AAA      1    SBC   C08V     15    -0.0490    12.0110
   675    ppg_AAA      1    SBC   C0AM     15     0.0117    12.0110
   676    ppg_AAE      1    SBC   C07B     15    -0.1099    12.0110
   677    ppg_AAA      1    SBC   C0AF     15     0.0310    12.0110
   678    ppg_AAA      1    SBC   C076     15     0.0983    12.0110
   679    ppg_AAE      1    SBC   C07A     15    -0.0594    12.0110
   680    ppg_AAB      1    SBC   C072     15     0.1925    12.0110
   681    ppg_AAE      1    SBC   C06Z     15     0.0223    12.0110
   682    ppg_AAE      1    SBC   C06Y     15    -0.0051    12.0110
   683    ppg_AAB      1    SBC   C07E     15    -0.2329    12.0110
   684    ppg_AAE      1    SBC   C07O     15    -0.0116    12.0110
   685    ppg_AAE      1    SBC   C07S     15     0.1018    12.0110
   686    ppg_AAC      1    SBC   H00N     15     0.1577     1.0080
   687    ppg_AAE      1    SBC   C07J     15    -0.0706    12.0110
   688    ppg_AAA      1    SBC   C07N     15     0.0489    12.0110
   689    ppg_AAE      1    SBC   C07R     15     0.1724    12.0110
   690    ppg_AAA      1    SBC   C05T     15    -0.1819    12.0110
   691    ppg_AAA      1    SBC   C05Q     15     0.2530    12.0110
   692    ppg_AAE      1    SBC   C05D     15    -0.1202    12.0110
   693    ppg_AAE      1    SBC   C05G     15    -0.0370    12.0110
   694    ppg_AAE      1    SBC   C05O     15    -0.0834    12.0110
   695    ppg_AAB      1    SBC   C061     15     0.1283    12.0110
   696    ppg_AAE      1    SBC   C05J     15     0.0924    12.0110
   697    ppg_AAB      1    SBC   C060     15    -0.1929    12.0110
   698    ppg_AAB      1    SBC   C06P     15     0.0688    12.0110
   699    ppg_AAE      1    SBC   C06H     15     0.0433    12.0110
   700    ppg_AAA      1    SBC   C06K     15    -0.0349    12.0110
   701    ppg_AAA      1    SBC   C06Q     15     0.0632    12.0110
   702    ppg_AAA      1    SBC   C06M     15    -0.0756    12.0110
   703    ppg_AAA      1    SBC   C06S     15    -0.0069    12.0110
   704    ppg_AAA      1    SBC   C06R     15     0.0192    12.0110
   705    ppg_AAA      1    SBC   C068     15     0.0119    12.0110
   706    ppg_AAA      1    SBC   C06A     15     0.0090    12.0110

[ bonds ]
    1     2     1      0.1370 435136.000
    1   705     1      0.1370 435136.000
    3     2     1      0.1370 435136.000
    3     4     1      0.1370 435136.000
    4     5     1      0.1370 435136.000
    5     6     1      0.1370 435136.000
    5   701     1      0.1370 435136.000
    6     7     1      0.1424 392459.200
    7     8     1      0.1433 357313.600
    8     9     1      0.1460 322168.000
    8   698     1      0.1460 322168.000
    9    10     1      0.1433 357313.600
   10   696     1      0.1400 392459.200
   11    10     1      0.1424 392459.200
   11    12     1      0.1433 357313.600
   11   695     1      0.1433 357313.600
   13    12     1      0.1433 357313.600
   13    14     1      0.1424 392459.200
   14    15     1      0.1400 392459.200
   15    16     1      0.1404 392459.200
   15   691     1      0.1404 392459.200
   16    17     1      0.1404 392459.200
   17    19     1      0.1400 392459.200
   18    17     1      0.1080 307105.600
   19    21     1      0.1400 392459.200
   20    19     1      0.1080 307105.600
   22    21     1      0.1080 307105.600
   23    21     1      0.1404 392459.200
   23    24     1      0.1433 357313.600
   25    24     1      0.1080 284512.000
   26    24     1      0.1370 376560.000
   27    26     1      0.1364 376560.000
   28    27     1      0.1404 392459.200
   29    28     1      0.1374 364844.800
   30    29     1      0.1374 364844.800
   30    31     1      0.1370 435136.000
   31    32     1      0.1370 435136.000
   32    33     1      0.1370 435136.000
   34    33     1      0.1404 392459.200
   34    35     1      0.1400 392459.200
   36    35     1      0.1080 307105.600
   37    35     1      0.1400 392459.200
   38    37     1      0.1080 307105.600
   39    37     1      0.1400 392459.200
   39    42     1      0.1404 392459.200
   40    39     1      0.1080 307105.600
   41    34     1      0.1364 376560.000
   42    33     1      0.1370 435136.000
   42    43     1      0.1404 392459.200
   43    44     1      0.1080 307105.600
   43    45     1      0.1400 392459.200
   45    46     1      0.1433 357313.600
   46    47     1      0.1460 322168.000
   47    48     1      0.1460 322168.000
   48   683     1      0.1460 322168.000
   49    48     1      0.1433 357313.600
   49    50     1      0.1400 392459.200
   50    53     1      0.1400 392459.200
   51    50     1      0.1400 392459.200
   51    52     1      0.1424 392459.200
   52   691     1      0.1424 392459.200
   53    54     1      0.1400 392459.200
   54    55     1      0.1433 357313.600
   55   695     1      0.1460 322168.000
   56    55     1      0.1460 322168.000
   57    56     1      0.1433 357313.600
   57   681     1      0.1400 392459.200
   58    57     1      0.1400 392459.200
   59    58     1      0.1404 392459.200
   59    60     1      0.1370 435136.000
   59   678     1      0.1370 435136.000
   60    61     1      0.1370 435136.000
   61    62     1      0.1370 435136.000
   62    63     1      0.1370 435136.000
   63    64     1      0.1374 364844.800
   63   674     1      0.1370 435136.000
   64    65     1      0.1374 364844.800
   65    66     1      0.1370 435136.000
   66    67     1      0.1404 392459.200
   66   662     1      0.1370 435136.000
   67    68     1      0.1404 392459.200
   68    69     1      0.1424 392459.200
   69    70     1      0.1424 392459.200
   70    72     1      0.1424 392459.200
   71    70     1      0.1080 307105.600
   72    74     1      0.1433 357313.600
   73    72     1      0.1080 307105.600
   75    74     1      0.1433 357313.600
   75   656     1      0.1364 376560.000
   76    75     1      0.1424 392459.200
   77    76     1      0.1424 392459.200
   77    78     1      0.1370 435136.000
   78    79     1      0.1370 435136.000
   79    80     1      0.1370 435136.000
   80   655     1      0.1424 392459.200
   81    79     1      0.1370 435136.000
   81    82     1      0.1370 435136.000
   82    83     1      0.1370 435136.000
   83    84     1      0.1370 435136.000
   84   648     1      0.1370 435136.000
   85    84     1      0.1370 435136.000
   86    85     1      0.1370 435136.000
   86    87     1      0.1370 435136.000
   87    88     1      0.1370 435136.000
   88    90     1      0.1370 435136.000
   89    88     1      0.1370 435136.000
   89   673     1      0.1370 435136.000
   90    91     1      0.1370 435136.000
   90   645     1      0.1370 435136.000
   91    92     1      0.1370 435136.000
   92   677     1      0.1370 435136.000
   93    91     1      0.1370 435136.000
   94    93     1      0.1370 435136.000
   95    94     1      0.1370 435136.000
   96    95     1      0.1370 435136.000
   96    97     1      0.1370 435136.000
   96   642     1      0.1370 435136.000
   97    98     1      0.1370 435136.000
   98    99     1      0.1404 392459.200
   99   100     1      0.1404 392459.200
  100   101     1      0.1370 435136.000
  102   101     1      0.1404 392459.200
  102   103     1      0.1080 284512.000
  104   102     1      0.1370 376560.000
  104   105     1      0.1364 376560.000
  105   106     1      0.1400 392459.200
  106   107     1      0.1424 392459.200
  107   109     1      0.1424 392459.200
  108   107     1      0.1080 307105.600
  109   111     1      0.1424 392459.200
  110   109     1      0.1080 307105.600
  111   112     1      0.1424 392459.200
  112   113     1      0.1404 392459.200
  113   115     1      0.1433 357313.600
  114   113     1      0.1080 307105.600
  115   116     1      0.1080 284512.000
  115   117     1      0.1433 357313.600
  117   118     1      0.1424 392459.200
  118   119     1      0.1424 392459.200
  119   146     1      0.1424 392459.200
  120   119     1      0.1433 357313.600
  120   121     1      0.1433 357313.600
  122   121     1      0.1424 392459.200
  123   122     1      0.1370 435136.000
  124   123     1      0.1370 435136.000
  125   124     1      0.1424 392459.200
  125   126     1      0.1424 392459.200
  126   653     1      0.1424 392459.200
  127   124     1      0.1370 435136.000
  128   127     1      0.1370 435136.000
  128   152     1      0.1370 435136.000
  128   647     1      0.1370 435136.000
  129   120     1      0.1460 322168.000
  129   125     1      0.1433 357313.600
  129   130     1      0.1433 357313.600
  131   130     1      0.1424 392459.200
  131   132     1      0.1370 435136.000
  131   654     1      0.1370 435136.000
  132   133     1      0.1374 364844.800
  133   134     1      0.1374 364844.800
  134   135     1      0.1404 392459.200
  136   135     1      0.1080 307105.600
  137   135     1      0.1400 392459.200
  138   137     1      0.1080 307105.600
  139   137     1      0.1400 392459.200
  139   142     1      0.1404 392459.200
  140   139     1      0.1080 307105.600
  141   134     1      0.1404 392459.200
  141   654     1      0.1404 392459.200
  141   656     1      0.1364 376560.000
  142   133     1      0.1374 364844.800
  142   143     1      0.1433 357313.600
  143   145     1      0.1433 357313.600
  144   143     1      0.1080 284512.000
  145   146     1      0.1370 435136.000
  145   147     1      0.1419 374049.600
  146   132     1      0.1370 435136.000
  147   117     1      0.1419 374049.600
  147   148     1      0.1229 476976.000
  149   112     1      0.1424 392459.200
  149   118     1      0.1424 392459.200
  149   121     1      0.1424 392459.200
  150   106     1      0.1424 392459.200
  150   111     1      0.1424 392459.200
  150   122     1      0.1424 392459.200
  151   105     1      0.1404 392459.200
  151   123     1      0.1370 435136.000
  152   101     1      0.1370 435136.000
  152   151     1      0.1370 435136.000
  153   100     1      0.1370 435136.000
  153   647     1      0.1370 435136.000
  154    99     1      0.1080 307105.600
  155    98     1      0.1404 392459.200
  155   156     1      0.1400 392459.200
  156   157     1      0.1400 392459.200
  156   642     1      0.1404 392459.200
  157   158     1      0.1433 357313.600
  158   159     1      0.1433 357313.600
  159   160     1      0.1424 392459.200
  160   161     1      0.1424 392459.200
  161   162     1      0.1400 392459.200
  162   163     1      0.1400 392459.200
  163   164     1      0.1433 357313.600
  163   633     1      0.1424 392459.200
  164   165     1      0.1460 322168.000
  165   166     1      0.1460 322168.000
  166   167     1      0.1460 322168.000
  167   168     1      0.1460 322168.000
  168   169     1      0.1460 322168.000
  170   169     1      0.1433 357313.600
  170   171     1      0.1424 392459.200
  171   172     1      0.1370 435136.000
  172   173     1      0.1370 435136.000
  173   174     1      0.1370 435136.000
  174   175     1      0.1370 435136.000
  174   585     1      0.1370 435136.000
  175   176     1      0.1424 392459.200
  175   584     1      0.1370 435136.000
  176   177     1      0.1433 357313.600
  177   178     1      0.1460 322168.000
  178   179     1      0.1433 357313.600
  180   179     1      0.1400 392459.200
  181   180     1      0.1404 392459.200
  181   182     1      0.1424 392459.200
  181   580     1      0.1370 435136.000
  182   188     1      0.1424 392459.200
  183   182     1      0.1433 357313.600
  184   183     1      0.1433 357313.600
  184   185     1      0.1080 307105.600
  186   184     1      0.1424 392459.200
  186   188     1      0.1424 392459.200
  187   186     1      0.1080 307105.600
  188   189     1      0.1400 392459.200
  189   191     1      0.1404 392459.200
  190   189     1      0.1080 307105.600
  191   192     1      0.1404 392459.200
  192   194     1      0.1404 392459.200
  193   192     1      0.1080 307105.600
  194   195     1      0.1433 357313.600
  195   197     1      0.1433 357313.600
  196   195     1      0.1080 284512.000
  197   198     1      0.1419 374049.600
  197   578     1      0.1370 435136.000
  198   200     1      0.1327 179075.200
  199   198     1      0.1229 476976.000
  200   201     1      0.1364 376560.000
  201   202     1      0.1404 392459.200
  201   577     1      0.1404 392459.200
  202   203     1      0.1404 392459.200
  203   205     1      0.1404 392459.200
  204   203     1      0.1080 307105.600
  205   206     1      0.1433 357313.600
  206   207     1      0.1080 284512.000
  208   206     1      0.1340 459403.200
  209   208     1      0.1080 284512.000
  210   208     1      0.1370 376560.000
  210   211     1      0.1364 376560.000
  211   212     1      0.1400 392459.200
  212   213     1      0.1364 376560.000
  213   214     1      0.1364 376560.000
  214   215     1      0.1404 392459.200
  215   216     1      0.1370 435136.000
  216   217     1      0.1370 435136.000
  217   218     1      0.1370 435136.000
  218   219     1      0.1424 392459.200
  219   220     1      0.1424 392459.200
  220   221     1      0.1424 392459.200
  221   222     1      0.1400 392459.200
  222   223     1      0.1400 392459.200
  223   224     1      0.1400 392459.200
  224   225     1      0.1424 392459.200
  225   226     1      0.1424 392459.200
  226   227     1      0.1424 392459.200
  227   228     1      0.1370 435136.000
  228   229     1      0.1370 435136.000
  229   231     1      0.1424 392459.200
  230   229     1      0.1370 435136.000
  230   566     1      0.1404 392459.200
  231   232     1      0.1400 392459.200
  232   261     1      0.1400 392459.200
  233   232     1      0.1400 392459.200
  234   233     1      0.1400 392459.200
  234   235     1      0.1433 357313.600
  235   236     1      0.1460 322168.000
  236   237     1      0.1460 322168.000
  237   238     1      0.1460 322168.000
  238   239     1      0.1460 322168.000
  239   240     1      0.1433 357313.600
  240   241     1      0.1374 364844.800
  241   242     1      0.1374 364844.800
  242   577     1      0.1370 435136.000
  243   240     1      0.1370 435136.000
  243   244     1      0.1370 435136.000
  243   570     1      0.1370 435136.000
  244   245     1      0.1370 435136.000
  245   575     1      0.1370 435136.000
  246   239     1      0.1433 357313.600
  246   242     1      0.1424 392459.200
  246   247     1      0.1424 392459.200
  247   248     1      0.1370 435136.000
  247   249     1      0.1424 392459.200
  248   578     1      0.1370 435136.000
  249   252     1      0.1433 357313.600
  250   249     1      0.1424 392459.200
  251   250     1      0.1424 392459.200
  252   237     1      0.1460 322168.000
  253   252     1      0.1460 322168.000
  253   254     1      0.1460 322168.000
  253   581     1      0.1433 357313.600
  254   255     1      0.1433 357313.600
  254   258     1      0.1433 357313.600
  255   256     1      0.1400 392459.200
  255   583     1      0.1400 392459.200
  256   257     1      0.1400 392459.200
  257   258     1      0.1400 392459.200
  259   235     1      0.1433 357313.600
  259   238     1      0.1433 357313.600
  259   567     1      0.1400 392459.200
  260   233     1      0.1400 392459.200
  260   236     1      0.1433 357313.600
  260   258     1      0.1400 392459.200
  261   257     1      0.1400 392459.200
  261   262     1      0.1433 357313.600
  263   262     1      0.1460 322168.000
  263   264     1      0.1433 357313.600
  263   559     1      0.1433 357313.600
  264   265     1      0.1424 392459.200
  264   557     1      0.1424 392459.200
  265   266     1      0.1370 435136.000
  266   268     1      0.1370 435136.000
  267   266     1      0.1370 435136.000
  267   561     1      0.1370 435136.000
  268   269     1      0.1370 435136.000
  269   270     1      0.1370 435136.000
  270   706     1      0.1370 435136.000
  271   269     1      0.1370 435136.000
  271   272     1      0.1370 435136.000
  271   705     1      0.1370 435136.000
  272   273     1      0.1370 435136.000
  273   274     1      0.1370 435136.000
  274   275     1      0.1370 435136.000
  275   276     1      0.1370 435136.000
  275   506     1      0.1370 435136.000
  276   277     1      0.1370 435136.000
  277   278     1      0.1370 435136.000
  277   501     1      0.1370 435136.000
  278   279     1      0.1370 435136.000
  279   280     1      0.1370 435136.000
  280   281     1      0.1370 435136.000
  281   282     1      0.1370 435136.000
  282   283     1      0.1370 435136.000
  283   284     1      0.1370 435136.000
  284   494     1      0.1370 435136.000
  285   284     1      0.1370 435136.000
  286   285     1      0.1370 435136.000
  287   286     1      0.1370 435136.000
  288   287     1      0.1370 435136.000
  288   290     1      0.1370 435136.000
  289   288     1      0.1370 435136.000
  289   499     1      0.1370 435136.000
  290   291     1      0.1370 435136.000
  290   491     1      0.1370 435136.000
  291   292     1      0.1370 435136.000
  292   293     1      0.1370 435136.000
  292   492     1      0.1370 435136.000
  293   489     1      0.1370 435136.000
  294   293     1      0.1370 435136.000
  294   488     1      0.1370 435136.000
  295   294     1      0.1370 435136.000
  295   487     1      0.1370 435136.000
  296   295     1      0.1370 435136.000
  297   296     1      0.1370 435136.000
  297   298     1      0.1374 364844.800
  297   485     1      0.1370 435136.000
  298   299     1      0.1374 364844.800
  299   300     1      0.1404 392459.200
  300   301     1      0.1404 392459.200
  300   352     1      0.1364 376560.000
  301   302     1      0.1370 435136.000
  302   303     1      0.1370 435136.000
  303   304     1      0.1370 435136.000
  304   347     1      0.1404 392459.200
  305   304     1      0.1404 392459.200
  305   307     1      0.1404 392459.200
  306   305     1      0.1080 307105.600
  307   308     1      0.1370 435136.000
  308   309     1      0.1370 435136.000
  309   310     1      0.1404 392459.200
  310   312     1      0.1400 392459.200
  311   310     1      0.1080 307105.600
  312   313     1      0.1080 307105.600
  314   309     1      0.1370 435136.000
  314   317     1      0.1370 435136.000
  315   314     1      0.1404 392459.200
  315   692     1      0.1400 392459.200
  316   315     1      0.1080 307105.600
  317   318     1      0.1370 435136.000
  318   319     1      0.1370 435136.000
  319   320     1      0.1370 435136.000
  320   321     1      0.1370 435136.000
  321   484     1      0.1370 435136.000
  322   319     1      0.1370 435136.000
  323   322     1      0.1370 435136.000
  323   693     1      0.1424 392459.200
  323   696     1      0.1404 392459.200
  324   322     1      0.1370 435136.000
  325   324     1      0.1370 435136.000
  325   485     1      0.1370 435136.000
  326   324     1      0.1370 435136.000
  326   327     1      0.1370 435136.000
  326   341     1      0.1370 435136.000
  327   328     1      0.1424 392459.200
  328   329     1      0.1424 392459.200
  329   330     1      0.1424 392459.200
  330   339     1      0.1424 392459.200
  331   330     1      0.1424 392459.200
  331   334     1      0.1370 435136.000
  332   331     1      0.1370 435136.000
  333   332     1      0.1370 435136.000
  334   335     1      0.1370 435136.000
  335   340     1      0.1370 435136.000
  336   335     1      0.1370 435136.000
  336   489     1      0.1370 435136.000
  337   334     1      0.1370 435136.000
  338   337     1      0.1370 435136.000
  338   490     1      0.1370 435136.000
  340   329     1      0.1424 392459.200
  340   341     1      0.1370 435136.000
  341   342     1      0.1370 435136.000
  343   318     1      0.1424 392459.200
  343   693     1      0.1424 392459.200
  344   317     1      0.1370 435136.000
  344   321     1      0.1370 435136.000
  345   307     1      0.1404 392459.200
  345   312     1      0.1400 392459.200
  346   345     1      0.1080 307105.600
  347   348     1      0.1080 307105.600
  349   303     1      0.1370 435136.000
  349   308     1      0.1370 435136.000
  349   344     1      0.1370 435136.000
  350   301     1      0.1404 392459.200
  350   347     1      0.1400 392459.200
  351   350     1      0.1080 307105.600
  352   353     1      0.1364 376560.000
  353   354     1      0.1400 392459.200
  354   355     1      0.1080 307105.600
  354   356     1      0.1433 357313.600
  356   357     1      0.1340 459403.200
  357   359     1      0.1370 376560.000
  358   357     1      0.1080 284512.000
  359   360     1      0.1370 376560.000
  360   362     1      0.1340 459403.200
  361   360     1      0.1080 284512.000
  362   363     1      0.1404 392459.200
  363   364     1      0.1404 392459.200
  363   475     1      0.1370 435136.000
  364   366     1      0.1364 376560.000
  365   364     1      0.1404 392459.200
  365   493     1      0.1374 364844.800
  365   494     1      0.1370 435136.000
  367   366     1      0.1364 376560.000
  367   368     1      0.1404 392459.200
  369   368     1      0.1424 392459.200
  369   370     1      0.1433 357313.600
  370   371     1      0.1460 322168.000
  371   372     1      0.1433 357313.600
  372   373     1      0.1424 392459.200
  373   460     1      0.1370 435136.000
  374   373     1      0.1370 435136.000
  374   459     1      0.1370 435136.000
  375   374     1      0.1370 435136.000
  375   376     1      0.1374 364844.800
  377   376     1      0.1374 364844.800
  377   378     1      0.1370 435136.000
  378   451     1      0.1370 435136.000
  379   378     1      0.1370 435136.000
  379   380     1      0.1374 364844.800
  379   449     1      0.1404 392459.200
  381   380     1      0.1374 364844.800
  382   381     1      0.1370 435136.000
  382   383     1      0.1404 392459.200
  382   385     1      0.1433 357313.600
  383   449     1      0.1400 392459.200
  384   383     1      0.1080 307105.600
  385   387     1      0.1370 376560.000
  386   385     1      0.1080 284512.000
  387   388     1      0.1364 376560.000
  388   447     1      0.1404 392459.200
  389   388     1      0.1400 392459.200
  390   389     1      0.1400 392459.200
  390   392     1      0.1400 392459.200
  391   390     1      0.1080 307105.600
  392   394     1      0.1404 392459.200
  393   392     1      0.1080 307105.600
  394   395     1      0.1370 435136.000
  395   396     1      0.1424 392459.200
  395   448     1      0.1370 435136.000
  396   397     1      0.1424 392459.200
  397   398     1      0.1424 392459.200
  398   443     1      0.1424 392459.200
  399   398     1      0.1424 392459.200
  399   417     1      0.1370 435136.000
  400   399     1      0.1370 435136.000
  400   401     1      0.1370 435136.000
  402   401     1      0.1370 435136.000
  402   403     1      0.1370 435136.000
  403   404     1      0.1370 435136.000
  404   405     1      0.1370 435136.000
  404   416     1      0.1370 435136.000
  405   409     1      0.1370 435136.000
  406   405     1      0.1370 435136.000
  407   406     1      0.1404 392459.200
  407   572     1      0.1400 392459.200
  408   407     1      0.1080 307105.600
  409   415     1      0.1360 284512.000
  410   409     1      0.1424 392459.200
  410   411     1      0.1424 392459.200
  410   444     1      0.1381 357313.600
  412   411     1      0.1080 307105.600
  413   411     1      0.1490 334720.000
  414   413     1      0.1229 476976.000
  415   413     1      0.1327 179075.200
  416   400     1      0.1370 435136.000
  417   418     1      0.1370 435136.000
  417   442     1      0.1370 435136.000
  418   419     1      0.1370 435136.000
  418   436     1      0.1370 435136.000
  419   420     1      0.1370 435136.000
  420   421     1      0.1370 435136.000
  421   424     1      0.1370 435136.000
  422   421     1      0.1370 435136.000
  422   423     1      0.1370 435136.000
  423   448     1      0.1370 435136.000
  424   425     1      0.1370 435136.000
  425   428     1      0.1370 435136.000
  426   425     1      0.1370 435136.000
  426   433     1      0.1370 435136.000
  427   426     1      0.1370 435136.000
  427   498     1      0.1370 435136.000
  428   431     1      0.1370 435136.000
  429   428     1      0.1370 435136.000
  429   430     1      0.1424 392459.200
  431   455     1      0.1370 435136.000
  432   424     1      0.1370 435136.000
  432   455     1      0.1370 435136.000
  433   420     1      0.1370 435136.000
  434   433     1      0.1370 435136.000
  434   435     1      0.1370 435136.000
  434   436     1      0.1370 435136.000
  435   498     1      0.1370 435136.000
  435   500     1      0.1370 435136.000
  436   437     1      0.1370 435136.000
  437   438     1      0.1370 435136.000
  437   441     1      0.1370 435136.000
  438   439     1      0.1370 435136.000
  439   440     1      0.1370 435136.000
  441   442     1      0.1370 435136.000
  443   419     1      0.1424 392459.200
  444   397     1      0.1381 357313.600
  444   416     1      0.1374 364844.800
  445   396     1      0.1424 392459.200
  445   422     1      0.1424 392459.200
  445   443     1      0.1424 392459.200
  446   389     1      0.1080 307105.600
  447   381     1      0.1370 435136.000
  447   394     1      0.1370 435136.000
  448   380     1      0.1374 364844.800
  449   450     1      0.1364 376560.000
  450   452     1      0.1364 376560.000
  451   423     1      0.1370 435136.000
  451   432     1      0.1370 435136.000
  452   377     1      0.1404 392459.200
  452   453     1      0.1400 392459.200
  453   456     1      0.1404 392459.200
  454   453     1      0.1080 307105.600
  455   376     1      0.1374 364844.800
  456   375     1      0.1370 435136.000
  457   456     1      0.1404 392459.200
  457   460     1      0.1404 392459.200
  458   457     1      0.1080 307105.600
  459   431     1      0.1370 435136.000
  460   461     1      0.1404 392459.200
  461   462     1      0.1080 307105.600
  463   461     1      0.1400 392459.200
  463   464     1      0.1080 307105.600
  465   372     1      0.1424 392459.200
  465   463     1      0.1400 392459.200
  465   466     1      0.1424 392459.200
  466   472     1      0.1424 392459.200
  467   466     1      0.1433 357313.600
  468   467     1      0.1080 284512.000
  469   467     1      0.1340 459403.200
  470   469     1      0.1080 284512.000
  471   469     1      0.1370 376560.000
  471   474     1      0.1364 376560.000
  472   371     1      0.1433 357313.600
  472   474     1      0.1400 392459.200
  473   370     1      0.1433 357313.600
  473   430     1      0.1424 392459.200
  473   459     1      0.1424 392459.200
  474   367     1      0.1400 392459.200
  476   475     1      0.1370 435136.000
  476   478     1      0.1370 435136.000
  477   476     1      0.1370 435136.000
  477   481     1      0.1374 364844.800
  478   486     1      0.1370 435136.000
  479   475     1      0.1370 435136.000
  480   479     1      0.1370 435136.000
  480   492     1      0.1370 435136.000
  481   356     1      0.1365 374886.400
  481   362     1      0.1365 374886.400
  482   353     1      0.1404 392459.200
  482   477     1      0.1370 435136.000
  483   299     1      0.1370 435136.000
  483   482     1      0.1370 435136.000
  483   486     1      0.1370 435136.000
  484   298     1      0.1374 364844.800
  484   302     1      0.1370 435136.000
  485   320     1      0.1370 435136.000
  486   296     1      0.1370 435136.000
  487   325     1      0.1370 435136.000
  487   342     1      0.1370 435136.000
  488   478     1      0.1370 435136.000
  488   480     1      0.1370 435136.000
  489   342     1      0.1370 435136.000
  490   291     1      0.1370 435136.000
  490   336     1      0.1370 435136.000
  491   507     1      0.1370 435136.000
  492   287     1      0.1370 435136.000
  493   286     1      0.1374 364844.800
  493   479     1      0.1374 364844.800
  494   368     1      0.1370 435136.000
  495   283     1      0.1424 392459.200
  495   369     1      0.1424 392459.200
  495   430     1      0.1424 392459.200
  496   282     1      0.1370 435136.000
  496   427     1      0.1370 435136.000
  496   429     1      0.1370 435136.000
  497   281     1      0.1370 435136.000
  497   285     1      0.1370 435136.000
  497   289     1      0.1370 435136.000
  498   280     1      0.1370 435136.000
  499   279     1      0.1370 435136.000
  500   278     1      0.1370 435136.000
  500   438     1      0.1370 435136.000
  501   439     1      0.1370 435136.000
  502   501     1      0.1370 435136.000
  502   503     1      0.1370 435136.000
  502   506     1      0.1370 435136.000
  503   562     1      0.1370 435136.000
  504   503     1      0.1370 435136.000
  505   276     1      0.1370 435136.000
  505   491     1      0.1370 435136.000
  505   499     1      0.1370 435136.000
  507   274     1      0.1370 435136.000
  507   338     1      0.1370 435136.000
  508   273     1      0.1370 435136.000
  508   333     1      0.1370 435136.000
  508   337     1      0.1370 435136.000
  509   272     1      0.1370 435136.000
  509   506     1      0.1370 435136.000
  510   268     1      0.1370 435136.000
  510   504     1      0.1370 435136.000
  510   509     1      0.1370 435136.000
  511   265     1      0.1370 435136.000
  511   270     1      0.1370 435136.000
  511   512     1      0.1370 435136.000
  512   513     1      0.1370 435136.000
  513   514     1      0.1370 435136.000
  513   557     1      0.1424 392459.200
  514   554     1      0.1370 435136.000
  515   514     1      0.1370 435136.000
  515   516     1      0.1370 435136.000
  515   553     1      0.1370 435136.000
  516   555     1      0.1370 435136.000
  517   516     1      0.1370 435136.000
  517   518     1      0.1370 435136.000
  518   519     1      0.1370 435136.000
  519   520     1      0.1370 435136.000
  521   520     1      0.1370 435136.000
  522   521     1      0.1370 435136.000
  523   522     1      0.1370 435136.000
  523   524     1      0.1370 435136.000
  524   525     1      0.1370 435136.000
  525   528     1      0.1370 435136.000
  526   525     1      0.1370 435136.000
  526   588     1      0.1370 435136.000
  527   526     1      0.1370 435136.000
  527   587     1      0.1370 435136.000
  529   528     1      0.1424 392459.200
  529   638     1      0.1433 357313.600
  530   524     1      0.1370 435136.000
  530   553     1      0.1370 435136.000
  531   523     1      0.1424 392459.200
  531   529     1      0.1424 392459.200
  531   532     1      0.1424 392459.200
  532   533     1      0.1424 392459.200
  533   534     1      0.1370 435136.000
  533   550     1      0.1370 435136.000
  534   535     1      0.1370 435136.000
  535   536     1      0.1370 435136.000
  536   538     1      0.1370 435136.000
  537   536     1      0.1370 435136.000
  537   550     1      0.1370 435136.000
  537   551     1      0.1370 435136.000
  538   541     1      0.1370 435136.000
  539   538     1      0.1370 435136.000
  540   539     1      0.1370 435136.000
  540   677     1      0.1370 435136.000
  541   544     1      0.1424 392459.200
  542   541     1      0.1370 435136.000
  542   543     1      0.1370 435136.000
  542   551     1      0.1370 435136.000
  543   702     1      0.1370 435136.000
  544   545     1      0.1424 392459.200
  546   545     1      0.1400 392459.200
  546   680     1      0.1433 357313.600
  547   544     1      0.1424 392459.200
  548   532     1      0.1424 392459.200
  549   548     1      0.1424 392459.200
  550   522     1      0.1370 435136.000
  551   520     1      0.1370 435136.000
  552   517     1      0.1370 435136.000
  552   521     1      0.1370 435136.000
  552   530     1      0.1370 435136.000
  553   527     1      0.1370 435136.000
  554   585     1      0.1370 435136.000
  555   512     1      0.1370 435136.000
  556   555     1      0.1370 435136.000
  556   703     1      0.1370 435136.000
  556   706     1      0.1370 435136.000
  558   557     1      0.1424 392459.200
  558   559     1      0.1424 392459.200
  559   584     1      0.1424 392459.200
  560   231     1      0.1424 392459.200
  560   262     1      0.1433 357313.600
  560   267     1      0.1424 392459.200
  561   228     1      0.1370 435136.000
  561   504     1      0.1370 435136.000
  562   227     1      0.1370 435136.000
  562   440     1      0.1370 435136.000
  563   225     1      0.1424 392459.200
  563   440     1      0.1370 435136.000
  563   441     1      0.1370 435136.000
  564   224     1      0.1424 392459.200
  564   401     1      0.1370 435136.000
  564   442     1      0.1370 435136.000
  565   223     1      0.1400 392459.200
  565   226     1      0.1424 392459.200
  565   230     1      0.1424 392459.200
  566   221     1      0.1400 392459.200
  566   234     1      0.1400 392459.200
  567   220     1      0.1400 392459.200
  568   219     1      0.1424 392459.200
  568   222     1      0.1400 392459.200
  568   402     1      0.1424 392459.200
  569   218     1      0.1370 435136.000
  569   403     1      0.1370 435136.000
  569   571     1      0.1370 435136.000
  570   217     1      0.1370 435136.000
  570   567     1      0.1404 392459.200
  571   215     1      0.1370 435136.000
  571   406     1      0.1370 435136.000
  572   214     1      0.1400 392459.200
  573   572     1      0.1080 307105.600
  574   212     1      0.1404 392459.200
  574   216     1      0.1370 435136.000
  574   244     1      0.1370 435136.000
  575   205     1      0.1370 435136.000
  575   211     1      0.1404 392459.200
  576   202     1      0.1370 435136.000
  576   241     1      0.1374 364844.800
  576   245     1      0.1370 435136.000
  578   577     1      0.1370 435136.000
  579   194     1      0.1370 435136.000
  579   248     1      0.1370 435136.000
  579   251     1      0.1370 435136.000
  580   191     1      0.1370 435136.000
  580   251     1      0.1370 435136.000
  581   180     1      0.1400 392459.200
  581   250     1      0.1424 392459.200
  582   178     1      0.1460 322168.000
  582   183     1      0.1460 322168.000
  583   176     1      0.1400 392459.200
  583   179     1      0.1400 392459.200
  584   256     1      0.1424 392459.200
  585   558     1      0.1424 392459.200
  586   173     1      0.1424 392459.200
  586   177     1      0.1433 357313.600
  587   172     1      0.1370 435136.000
  587   554     1      0.1370 435136.000
  588   171     1      0.1370 435136.000
  588   589     1      0.1370 435136.000
  589   590     1      0.1370 435136.000
  591   169     1      0.1460 322168.000
  591   582     1      0.1460 322168.000
  591   586     1      0.1433 357313.600
  592   168     1      0.1433 357313.600
  592   595     1      0.1433 357313.600
  593   592     1      0.1080 307105.600
  594   167     1      0.1433 357313.600
  594   170     1      0.1424 392459.200
  594   590     1      0.1424 392459.200
  595   166     1      0.1460 322168.000
  596   595     1      0.1433 357313.600
  596   632     1      0.1424 392459.200
  597   596     1      0.1433 357313.600
  598   597     1      0.1080 284512.000
  599   597     1      0.1340 459403.200
  599   601     1      0.1370 376560.000
  600   599     1      0.1080 284512.000
  601   602     1      0.1364 376560.000
  602   603     1      0.1400 392459.200
  603   604     1      0.1364 376560.000
  603   633     1      0.1404 392459.200
  604   605     1      0.1364 376560.000
  605   606     1      0.1400 392459.200
  606   607     1      0.1080 307105.600
  608   606     1      0.1400 392459.200
  609   608     1      0.1080 307105.600
  610   608     1      0.1404 392459.200
  610   611     1      0.1370 435136.000
  611   631     1      0.1370 435136.000
  612   611     1      0.1424 392459.200
  613   612     1      0.1433 357313.600
  613   614     1      0.1460 322168.000
  614   615     1      0.1433 357313.600
  614   639     1      0.1460 322168.000
  616   615     1      0.1424 392459.200
  617   612     1      0.1424 392459.200
  618   617     1      0.1424 392459.200
  619   618     1      0.1400 392459.200
  620   619     1      0.1080 307105.600
  621   619     1      0.1400 392459.200
  622   621     1      0.1080 307105.600
  623   621     1      0.1404 392459.200
  624   623     1      0.1404 392459.200
  624   626     1      0.1340 459403.200
  625   624     1      0.1080 284512.000
  626   628     1      0.1370 376560.000
  627   626     1      0.1080 284512.000
  628   630     1      0.1364 376560.000
  629   617     1      0.1424 392459.200
  629   623     1      0.1370 435136.000
  629   630     1      0.1404 392459.200
  630   610     1      0.1404 392459.200
  631   605     1      0.1404 392459.200
  631   616     1      0.1370 435136.000
  632   165     1      0.1433 357313.600
  632   602     1      0.1400 392459.200
  633   616     1      0.1370 435136.000
  634   162     1      0.1400 392459.200
  634   615     1      0.1400 392459.200
  634   637     1      0.1433 357313.600
  635   161     1      0.1424 392459.200
  635   164     1      0.1433 357313.600
  635   590     1      0.1424 392459.200
  636   160     1      0.1370 435136.000
  636   528     1      0.1370 435136.000
  636   589     1      0.1370 435136.000
  637   159     1      0.1433 357313.600
  637   639     1      0.1460 322168.000
  638   158     1      0.1460 322168.000
  638   548     1      0.1433 357313.600
  639   157     1      0.1433 357313.600
  640   155     1      0.1400 392459.200
  640   613     1      0.1433 357313.600
  640   618     1      0.1424 392459.200
  641    97     1      0.1370 435136.000
  641   153     1      0.1370 435136.000
  642   549     1      0.1370 435136.000
  643    94     1      0.1370 435136.000
  643   534     1      0.1370 435136.000
  643   549     1      0.1370 435136.000
  644    93     1      0.1370 435136.000
  644   535     1      0.1370 435136.000
  644   540     1      0.1370 435136.000
  645    95     1      0.1370 435136.000
  646    86     1      0.1370 435136.000
  646   641     1      0.1370 435136.000
  646   645     1      0.1370 435136.000
  647    85     1      0.1370 435136.000
  648   127     1      0.1370 435136.000
  649    83     1      0.1370 435136.000
  649    87     1      0.1370 435136.000
  650   649     1      0.1370 435136.000
  651    82     1      0.1370 435136.000
  651   662     1      0.1370 435136.000
  652    81     1      0.1370 435136.000
  652   126     1      0.1424 392459.200
  652   648     1      0.1370 435136.000
  653    78     1      0.1424 392459.200
  653   130     1      0.1424 392459.200
  654    77     1      0.1370 435136.000
  655    76     1      0.1424 392459.200
  657    69     1      0.1433 357313.600
  657    74     1      0.1460 322168.000
  657   655     1      0.1433 357313.600
  658    68     1      0.1370 435136.000
  658    80     1      0.1370 435136.000
  658   651     1      0.1370 435136.000
  659    67     1      0.1364 376560.000
  660   659     1      0.1327 179075.200
  660   661     1      0.1229 476976.000
  662   650     1      0.1370 435136.000
  663    65     1      0.1370 435136.000
  663   660     1      0.1419 374049.600
  663   664     1      0.1370 435136.000
  664   674     1      0.1370 435136.000
  665   664     1      0.1404 392459.200
  665   667     1      0.1400 392459.200
  666   665     1      0.1080 307105.600
  667   669     1      0.1400 392459.200
  668   667     1      0.1080 307105.600
  669   670     1      0.1433 357313.600
  669   672     1      0.1424 392459.200
  671   670     1      0.1460 322168.000
  672   674     1      0.1424 392459.200
  672   676     1      0.1424 392459.200
  673    64     1      0.1374 364844.800
  673   650     1      0.1370 435136.000
  675    62     1      0.1370 435136.000
  675    89     1      0.1370 435136.000
  675    92     1      0.1370 435136.000
  676    61     1      0.1424 392459.200
  676   679     1      0.1424 392459.200
  677    60     1      0.1370 435136.000
  678   539     1      0.1370 435136.000
  678   547     1      0.1424 392459.200
  679    58     1      0.1400 392459.200
  679   670     1      0.1433 357313.600
  680    56     1      0.1460 322168.000
  680   547     1      0.1433 357313.600
  681    54     1      0.1400 392459.200
  681   682     1      0.1400 392459.200
  682    49     1      0.1400 392459.200
  682   671     1      0.1433 357313.600
  683   671     1      0.1460 322168.000
  684    47     1      0.1433 357313.600
  684   688     1      0.1424 392459.200
  685    46     1      0.1433 357313.600
  685   683     1      0.1433 357313.600
  686   685     1      0.1080 307105.600
  687    32     1      0.1424 392459.200
  687    45     1      0.1424 392459.200
  687   684     1      0.1424 392459.200
  688    30     1      0.1370 435136.000
  688    51     1      0.1424 392459.200
  689    27     1      0.1400 392459.200
  689    31     1      0.1404 392459.200
  689    41     1      0.1364 376560.000
  690    16     1      0.1370 435136.000
  690    23     1      0.1370 435136.000
  690    28     1      0.1370 435136.000
  691    29     1      0.1374 364844.800
  692    14     1      0.1424 392459.200
  692   343     1      0.1424 392459.200
  693    13     1      0.1424 392459.200
  694    12     1      0.1433 357313.600
  694    52     1      0.1424 392459.200
  694    53     1      0.1400 392459.200
  695   697     1      0.1460 322168.000
  696   327     1      0.1404 392459.200
  697     9     1      0.1460 322168.000
  698   328     1      0.1433 357313.600
  698   339     1      0.1433 357313.600
  699     7     1      0.1400 392459.200
  699   546     1      0.1400 392459.200
  699   697     1      0.1433 357313.600
  700     6     1      0.1370 435136.000
  700   543     1      0.1370 435136.000
  700   545     1      0.1424 392459.200
  701   339     1      0.1424 392459.200
  702     4     1      0.1370 435136.000
  702   519     1      0.1370 435136.000
  703     3     1      0.1370 435136.000
  703   518     1      0.1370 435136.000
  704     2     1      0.1370 435136.000
  704   332     1      0.1370 435136.000
  704   701     1      0.1370 435136.000
  705   333     1      0.1370 435136.000
  706     1     1      0.1370 435136.000
[ angles ]
;  ai    aj    ak funct            c0            c1            c2            c3 
     1    2     3     1    117.300    711.280
     1    2   704     1    117.300    711.280
     1  705   271     1    117.300    711.280
     1  706   270     1    117.300    711.280
     1  706   556     1    117.300    711.280
     2    1   706     1    117.300    711.280
     2    3     4     1    117.300    711.280
     2    3   703     1    117.300    711.280
     2  704   701     1    117.300    711.280
     3    2   704     1    117.300    711.280
     3    4   702     1    117.300    711.280
     3  703   518     1    117.300    711.280
     3  703   556     1    117.300    711.280
     4    3   703     1    117.300    711.280
     4  702   519     1    117.300    711.280
     4  702   543     1    117.300    711.280
     5    4     3     1    117.300    711.280
     5    4   702     1    117.300    711.280
     5    6   700     1    117.300    711.280
     5  701   704     1    117.300    711.280
     6    5     4     1    117.300    711.280
     6    5   701     1    117.300    711.280
     6    7   699     1    120.000    527.184
     6  700   543     1    117.300    711.280
     7    6     5     1    107.300    585.760
     7    6   700     1    107.300    585.760
     7    8   698     1    117.000    711.280
     7  699   546     1    120.000    527.184
     8    7     6     1    124.000    585.760
     8    7   699     1    124.000    585.760
     9    8     7     1    117.000    711.280
     9    8   698     1    124.000    585.760
     9   10    11     1    124.000    585.760
     9  697   695     1    124.000    585.760
     9  697   699     1    117.000    711.280
    10    9     8     1    117.000    711.280
    10    9   697     1    117.000    711.280
    10   11    12     1    124.000    585.760
    10   11   695     1    124.000    585.760
    10  696   323     1    120.000    527.184
    11   12    13     1    116.800    392.459
    11   12   694     1    116.800    392.459
    12   13   693     1    124.000    585.760
    13   12   694     1    116.800    392.459
    13   14   692     1    120.000    527.184
    13  693   323     1    107.300    585.760
    13  693   343     1    120.000    527.184
    14   13    12     1    124.000    585.760
    14   13   693     1    120.000    527.184
    14  692   315     1    120.000    527.184
    14  692   343     1    120.000    527.184
    15   14    13     1    120.000    527.184
    15   14   692     1    120.000    527.184
    15   16   690     1    117.300    711.280
    16   15    14     1    120.000    527.184
    16  690    23     1    117.300    711.280
    17   16    15     1    134.900    711.280
    17   16   690     1    117.300    711.280
    17   19    20     1    120.000    292.880
    18   17    16     1    120.000    292.880
    19   17    16     1    120.000    527.184
    19   17    18     1    120.000    292.880
    19   21    22     1    120.000    292.880
    19   21    23     1    120.000    527.184
    21   19    17     1    120.000    527.184
    21   19    20     1    120.000    292.880
    21   23   690     1    117.300    711.280
    23   21    22     1    120.000    292.880
    23   24    25     1    120.000    292.880
    24   23    21     1    134.900    711.280
    24   23   690     1    117.300    711.280
    24   26    27     1    111.000    627.600
    26   24    23     1    120.000    585.760
    26   24    25     1    118.770    482.666
    26   27    28     1    120.000    585.760
    26   27   689     1    120.000    585.760
    27   28    29     1    108.700    585.760
    27   28   690     1    117.300    711.280
    27  689    31     1    120.000    527.184
    27  689    41     1    120.000    585.760
    28   27   689     1    120.000    527.184
    28   29    30     1    125.200    585.760
    28   29   691     1    125.200    585.760
    28  690    16     1    117.300    711.280
    28  690    23     1    117.300    711.280
    29   28   690     1    106.200    585.760
    29   30    31     1    106.200    585.760
    29   30   688     1    106.200    585.760
    29  691    15     1    108.700    585.760
    29  691    52     1    107.700    585.760
    30   31   689     1    117.300    711.280
    30  688   684     1    107.300    585.760
    31   30   688     1    117.300    711.280
    31   32   687     1    107.300    585.760
    31  689    41     1    120.000    585.760
    32   31    30     1    117.300    711.280
    32   31   689     1    117.300    711.280
    32   33    34     1    117.300    711.280
    32   33    42     1    117.300    711.280
    32  687   684     1    107.300    585.760
    33   32    31     1    117.300    711.280
    33   32   687     1    107.300    585.760
    33   34    35     1    120.000    527.184
    33   34    41     1    120.000    585.760
    33   42    39     1    117.300    711.280
    33   42    43     1    117.300    711.280
    34   35    36     1    120.000    292.880
    34   41   689     1    116.300    627.600
    35   34    41     1    120.000    585.760
    35   37    38     1    120.000    292.880
    35   37    39     1    120.000    527.184
    37   35    34     1    120.000    527.184
    37   35    36     1    120.000    292.880
    37   39    40     1    120.000    292.880
    38   37    39     1    120.000    292.880
    42   33    34     1    117.300    711.280
    42   39    37     1    120.000    527.184
    42   39    40     1    120.000    292.880
    43   42    39     1    134.900    711.280
    43   45   687     1    120.000    527.184
    44   43    42     1    120.000    292.880
    45   43    42     1    120.000    527.184
    45   43    44     1    120.000    292.880
    45   46   685     1    116.800    392.459
    45  687    32     1    107.300    585.760
    45  687   684     1    120.000    527.184
    46   45    43     1    124.000    585.760
    46   45   687     1    124.000    585.760
    46   47   684     1    117.000    711.280
    46  685   686     1    120.060    484.926
    47   46    45     1    117.000    711.280
    47   46   685     1    117.000    711.280
    47   48    49     1    117.000    711.280
    47  684   687     1    124.000    585.760
    47  684   688     1    124.000    585.760
    48   47    46     1    124.000    585.760
    48   47   684     1    117.000    711.280
    48   49   682     1    124.000    585.760
    48  683   685     1    117.000    711.280
    49   50    51     1    120.000    527.184
    49  682   681     1    120.000    527.184
    50   49    48     1    124.000    585.760
    50   49   682     1    120.000    527.184
    50   51    52     1    120.000    527.184
    50   51   688     1    120.000    527.184
    50   53   694     1    120.000    527.184
    51   52   694     1    120.000    527.184
    51  688    30     1    107.300    585.760
    51  688   684     1    134.900    711.280
    52   51   688     1    107.300    585.760
    52  691    15     1    134.900    711.280
    52  694    12     1    124.000    585.760
    53   50    49     1    120.000    527.184
    53   50    51     1    120.000    527.184
    53   54   681     1    120.000    527.184
    53  694    12     1    124.000    585.760
    53  694    52     1    120.000    527.184
    54   53    50     1    120.000    527.184
    54   53   694     1    120.000    527.184
    54   55    56     1    117.000    711.280
    54  681    57     1    120.000    527.184
    54  681   682     1    120.000    527.184
    55   54    53     1    124.000    585.760
    55   54   681     1    124.000    585.760
    55   56    57     1    117.000    711.280
    55   56   680     1    124.000    585.760
    55  695    11     1    117.000    711.280
    56   57    58     1    124.000    585.760
    56   57   681     1    124.000    585.760
    56  680   546     1    117.000    711.280
    56  680   547     1    117.000    711.280
    57   56   680     1    117.000    711.280
    57   58    59     1    120.000    527.184
    57   58   679     1    120.000    527.184
    58   59   678     1    117.300    711.280
    58  679   676     1    120.000    527.184
    59   58   679     1    120.000    527.184
    60   59    58     1    117.300    711.280
    60   59   678     1    117.300    711.280
    60   61   676     1    107.300    585.760
    60  677    92     1    117.300    711.280
    60  677   540     1    117.300    711.280
    61   60    59     1    117.300    711.280
    61   60   677     1    117.300    711.280
    61   62   675     1    117.300    711.280
    61  676   672     1    107.300    585.760
    61  676   679     1    107.300    585.760
    62   61    60     1    117.300    711.280
    62   61   676     1    107.300    585.760
    62  675    89     1    117.300    711.280
    62  675    92     1    117.300    711.280
    63   62    61     1    117.300    711.280
    63   62   675     1    117.300    711.280
    63   64   673     1    125.200    585.760
    63  674   664     1    117.300    711.280
    63  674   672     1    107.300    585.760
    64   63    62     1    106.200    585.760
    64   63   674     1    106.200    585.760
    64   65   663     1    106.200    585.760
    64  673    89     1    106.200    585.760
    64  673   650     1    106.200    585.760
    65   64    63     1    125.200    585.760
    65   64   673     1    125.200    585.760
    65   66   662     1    117.300    711.280
    65  663   664     1    117.300    711.280
    66   65    64     1    106.200    585.760
    66   65   663     1    117.300    711.280
    66  662   650     1    117.300    711.280
    66  662   651     1    117.300    711.280
    67   66    65     1    117.300    711.280
    67   66   662     1    117.300    711.280
    67   68   658     1    117.300    711.280
    67  659   660     1    116.900    694.544
    68   67    66     1    120.000    527.184
    68   67   659     1    120.000    585.760
    68   69   657     1    124.000    585.760
    68  658    80     1    117.300    711.280
    68  658   651     1    117.300    711.280
    69   68    67     1    134.900    711.280
    69   68   658     1    107.300    585.760
    69   70    71     1    127.500    292.880
    69  657   655     1    116.800    392.459
    70   69    68     1    107.300    585.760
    70   69   657     1    124.000    585.760
    70   72    73     1    127.500    292.880
    72   70    69     1    120.000    527.184
    72   70    71     1    127.500    292.880
    72   74    75     1    116.800    392.459
    72   74   657     1    117.000    711.280
    74   72    70     1    124.000    585.760
    74   72    73     1    120.060    484.926
    74   75    76     1    124.000    585.760
    74   75   656     1    120.060    484.926
    74  657    69     1    117.000    711.280
    74  657   655     1    117.000    711.280
    75   74   657     1    117.000    711.280
    75   76    77     1    107.300    585.760
    75   76   655     1    120.000    527.184
    75  656   141     1    116.300    627.600
    76   77    78     1    107.300    585.760
    76   77   654     1    107.300    585.760
    76  655    80     1    107.300    585.760
    76  655   657     1    124.000    585.760
    77   78   653     1    107.300    585.760
    77  654   131     1    117.300    711.280
    77  654   141     1    117.300    711.280
    78   77   654     1    117.300    711.280
    78   79    81     1    117.300    711.280
    78  653   126     1    107.300    585.760
    78  653   130     1    107.300    585.760
    79   78    77     1    117.300    711.280
    79   78   653     1    107.300    585.760
    79   80   658     1    117.300    711.280
    79   81    82     1    117.300    711.280
    79   81   652     1    117.300    711.280
    80   79    78     1    117.300    711.280
    80   79    81     1    117.300    711.280
    80  655   657     1    124.000    585.760
    80  658   651     1    117.300    711.280
    81   82   651     1    117.300    711.280
    82   81   652     1    117.300    711.280
    82  651   658     1    117.300    711.280
    82  651   662     1    117.300    711.280
    83   82    81     1    117.300    711.280
    83   82   651     1    117.300    711.280
    83   84   648     1    117.300    711.280
    83  649   650     1    117.300    711.280
    84   83    82     1    117.300    711.280
    84   83   649     1    117.300    711.280
    84   85    86     1    117.300    711.280
    84   85   647     1    117.300    711.280
    84  648   652     1    117.300    711.280
    85   84    83     1    117.300    711.280
    85   86    87     1    117.300    711.280
    85   86   646     1    117.300    711.280
    85  647   128     1    117.300    711.280
    85  647   153     1    117.300    711.280
    86   87   649     1    117.300    711.280
    86  646   641     1    117.300    711.280
    87   86   646     1    117.300    711.280
    87   88    89     1    117.300    711.280
    87  649    83     1    117.300    711.280
    87  649   650     1    117.300    711.280
    88   87    86     1    117.300    711.280
    88   87   649     1    117.300    711.280
    88   89   673     1    117.300    711.280
    88   89   675     1    117.300    711.280
    90   88    87     1    117.300    711.280
    90   88    89     1    117.300    711.280
    90  645   646     1    117.300    711.280
    91   90    88     1    117.300    711.280
    91   90   645     1    117.300    711.280
    91   92   675     1    117.300    711.280
    91   93    94     1    117.300    711.280
    91   93   644     1    117.300    711.280
    92   91    90     1    117.300    711.280
    92   91    93     1    117.300    711.280
    92  675    89     1    117.300    711.280
    92  677   540     1    117.300    711.280
    93   91    90     1    117.300    711.280
    93   94    95     1    117.300    711.280
    93   94   643     1    117.300    711.280
    93  644   535     1    117.300    711.280
    93  644   540     1    117.300    711.280
    94   93   644     1    117.300    711.280
    94   95    96     1    117.300    711.280
    94   95   645     1    117.300    711.280
    94  643   534     1    117.300    711.280
    94  643   549     1    117.300    711.280
    95   94   643     1    117.300    711.280
    95   96    97     1    117.300    711.280
    95   96   642     1    117.300    711.280
    95  645    90     1    117.300    711.280
    95  645   646     1    117.300    711.280
    96   97   641     1    117.300    711.280
    96  642   156     1    117.300    711.280
    97   98   155     1    117.300    711.280
    97  641   153     1    117.300    711.280
    97  641   646     1    117.300    711.280
    98   97    96     1    117.300    711.280
    98   97   641     1    117.300    711.280
    98   99   154     1    120.000    292.880
    98  155   156     1    120.000    527.184
    98  155   640     1    120.000    527.184
    99   98    97     1    117.300    711.280
    99   98   155     1    134.900    711.280
    99  100   153     1    117.300    711.280
   100   99    98     1    120.000    527.184
   100   99   154     1    120.000    292.880
   100  101   102     1    117.300    711.280
   100  101   152     1    117.300    711.280
   100  153   641     1    117.300    711.280
   101  100    99     1    117.300    711.280
   101  100   153     1    117.300    711.280
   101  102   103     1    120.000    292.880
   101  102   104     1    120.000    585.760
   101  152   128     1    117.300    711.280
   101  152   151     1    117.300    711.280
   102  101   152     1    117.300    711.280
   102  104   105     1    111.000    627.600
   103  102   104     1    118.770    482.666
   104  105   151     1    120.000    585.760
   105  106   150     1    120.000    527.184
   105  151   152     1    117.300    711.280
   106  105   104     1    120.000    585.760
   106  105   151     1    120.000    527.184
   106  107   108     1    127.500    292.880
   107  106   105     1    120.000    527.184
   107  106   150     1    120.000    527.184
   107  109   110     1    127.500    292.880
   109  107   106     1    120.000    527.184
   109  107   108     1    127.500    292.880
   109  111   150     1    120.000    527.184
   111  109   107     1    120.000    527.184
   111  109   110     1    127.500    292.880
   111  112   149     1    134.900    711.280
   111  150   106     1    120.000    527.184
   112  111   109     1    107.300    585.760
   112  111   150     1    107.300    585.760
   112  113   114     1    120.000    292.880
   113  112   111     1    134.900    711.280
   113  112   149     1    134.900    711.280
   113  115   116     1    122.260    502.080
   115  113   112     1    124.000    585.760
   115  113   114     1    118.940    551.284
   115  117   147     1    121.310    632.202
   117  115   113     1    122.260    502.080
   117  115   116     1    122.260    502.080
   117  118   149     1    107.300    585.760
   117  147   145     1    120.000    711.280
   117  147   148     1    128.800    669.440
   118  117   115     1    124.000    585.760
   118  117   147     1    120.000    711.280
   118  119   120     1    124.000    585.760
   118  149   112     1    107.300    585.760
   119  118   117     1    107.300    585.760
   119  118   149     1    120.000    527.184
   119  120   129     1    117.000    711.280
   119  146   145     1    107.300    585.760
   120  121   149     1    124.000    585.760
   121  120   119     1    116.800    392.459
   121  120   129     1    117.000    711.280
   121  122   123     1    107.300    585.760
   121  122   150     1    134.900    711.280
   121  149   112     1    107.300    585.760
   121  149   118     1    120.000    527.184
   122  121   120     1    124.000    585.760
   122  121   149     1    107.300    585.760
   122  123   124     1    117.300    711.280
   122  123   151     1    117.300    711.280
   122  150   106     1    107.300    585.760
   122  150   111     1    107.300    585.760
   123  122   150     1    107.300    585.760
   123  124   125     1    107.300    585.760
   123  124   127     1    117.300    711.280
   123  151   105     1    117.300    711.280
   123  151   152     1    117.300    711.280
   124  123   151     1    117.300    711.280
   124  125   126     1    107.300    585.760
   124  125   129     1    124.000    585.760
   124  127   128     1    117.300    711.280
   124  127   648     1    117.300    711.280
   125  126   652     1    107.300    585.760
   125  129   120     1    117.000    711.280
   126  125   129     1    124.000    585.760
   126  652    81     1    107.300    585.760
   127  124   125     1    107.300    585.760
   127  128   152     1    117.300    711.280
   127  128   647     1    117.300    711.280
   127  648    84     1    117.300    711.280
   127  648   652     1    117.300    711.280
   130  129   120     1    117.000    711.280
   130  129   125     1    116.800    392.459
   130  653   126     1    120.000    527.184
   131  130   129     1    124.000    585.760
   131  654   141     1    117.300    711.280
   132  131   130     1    107.300    585.760
   132  133   142     1    125.200    585.760
   132  146   119     1    107.300    585.760
   132  146   145     1    117.300    711.280
   133  132   131     1    106.200    585.760
   133  132   146     1    106.200    585.760
   133  134   141     1    108.700    585.760
   133  142   139     1    108.700    585.760
   133  142   143     1    121.500    585.760
   134  133   132     1    125.200    585.760
   134  133   142     1    125.200    585.760
   134  135   136     1    120.000    292.880
   134  135   137     1    120.000    527.184
   135  134   133     1    108.700    585.760
   135  134   141     1    134.900    711.280
   135  137   138     1    120.000    292.880
   135  137   139     1    120.000    527.184
   137  135   136     1    120.000    292.880
   137  139   140     1    120.000    292.880
   139  137   138     1    120.000    292.880
   142  139   137     1    120.000    527.184
   142  139   140     1    120.000    292.880
   142  143   144     1    122.260    502.080
   143  142   139     1    124.000    585.760
   145  143   142     1    122.260    502.080
   145  143   144     1    122.260    502.080
   146  119   118     1    107.300    585.760
   146  119   120     1    124.000    585.760
   146  132   131     1    117.300    711.280
   146  145   143     1    124.000    585.760
   146  145   147     1    119.200    711.280
   147  145   143     1    121.310    632.202
   148  147   145     1    128.800    669.440
   151  152   128     1    117.300    711.280
   153  641   646     1    117.300    711.280
   153  647   128     1    117.300    711.280
   155  640   613     1    124.000    585.760
   156  155   640     1    120.000    527.184
   156  157   639     1    124.000    585.760
   157  156   155     1    120.000    527.184
   157  158   638     1    117.000    711.280
   157  639   614     1    117.000    711.280
   157  639   637     1    117.000    711.280
   158  157   156     1    124.000    585.760
   158  157   639     1    120.060    484.926
   158  159   637     1    120.060    484.926
   158  638   529     1    117.000    711.280
   159  158   157     1    116.800    392.459
   159  158   638     1    117.000    711.280
   159  160   636     1    107.300    585.760
   159  637   634     1    116.800    392.459
   159  637   639     1    117.000    711.280
   160  159   158     1    124.000    585.760
   160  159   637     1    124.000    585.760
   160  161   635     1    107.300    585.760
   160  636   589     1    117.300    711.280
   161  160   159     1    134.900    711.280
   161  160   636     1    107.300    585.760
   161  162   634     1    120.000    527.184
   161  635   590     1    107.300    585.760
   162  161   160     1    120.000    527.184
   162  161   635     1    120.000    527.184
   162  634   637     1    124.000    585.760
   163  162   161     1    120.000    527.184
   163  162   634     1    120.000    527.184
   163  164   635     1    116.800    392.459
   163  633   603     1    134.900    711.280
   164  163   162     1    124.000    585.760
   164  165   632     1    117.000    711.280
   164  635   161     1    124.000    585.760
   164  635   590     1    124.000    585.760
   165  164   163     1    117.000    711.280
   165  164   635     1    117.000    711.280
   165  166   595     1    124.000    585.760
   165  632   596     1    124.000    585.760
   165  632   602     1    124.000    585.760
   166  165   164     1    124.000    585.760
   166  165   632     1    117.000    711.280
   166  167   594     1    117.000    711.280
   166  595   592     1    117.000    711.280
   166  595   596     1    117.000    711.280
   167  166   165     1    124.000    585.760
   167  166   595     1    124.000    585.760
   167  168   592     1    117.000    711.280
   167  594   170     1    124.000    585.760
   167  594   590     1    124.000    585.760
   168  167   166     1    124.000    585.760
   168  167   594     1    117.000    711.280
   168  169   170     1    117.000    711.280
   168  169   591     1    124.000    585.760
   168  592   593     1    120.060    484.926
   168  592   595     1    120.060    484.926
   169  168   167     1    124.000    585.760
   169  168   592     1    117.000    711.280
   169  170   171     1    124.000    585.760
   169  170   594     1    124.000    585.760
   169  591   582     1    124.000    585.760
   169  591   586     1    117.000    711.280
   170  169   591     1    117.000    711.280
   170  171   588     1    107.300    585.760
   171  170   594     1    107.300    585.760
   171  172   587     1    117.300    711.280
   171  588   526     1    117.300    711.280
   172  171   170     1    107.300    585.760
   172  171   588     1    117.300    711.280
   172  173   586     1    107.300    585.760
   172  587   527     1    117.300    711.280
   173  172   171     1    117.300    711.280
   173  172   587     1    117.300    711.280
   173  586   591     1    124.000    585.760
   174  173   172     1    117.300    711.280
   174  173   586     1    107.300    585.760
   175  174   173     1    117.300    711.280
   175  176   583     1    120.000    527.184
   176  175   174     1    107.300    585.760
   176  177   586     1    116.800    392.459
   176  583   255     1    120.000    527.184
   177  176   175     1    124.000    585.760
   177  176   583     1    124.000    585.760
   177  178   582     1    124.000    585.760
   177  586   173     1    124.000    585.760
   177  586   591     1    120.060    484.926
   178  177   176     1    117.000    711.280
   178  177   586     1    117.000    711.280
   178  179   180     1    124.000    585.760
   178  179   583     1    124.000    585.760
   178  582   183     1    124.000    585.760
   178  582   591     1    124.000    585.760
   179  178   177     1    117.000    711.280
   179  178   582     1    117.000    711.280
   179  180   181     1    120.000    527.184
   179  180   581     1    120.000    527.184
   179  583   176     1    120.000    527.184
   179  583   255     1    120.000    527.184
   180  179   583     1    120.000    527.184
   180  181   580     1    117.300    711.280
   180  581   250     1    120.000    527.184
   180  581   253     1    124.000    585.760
   181  180   581     1    120.000    527.184
   182  181   180     1    134.900    711.280
   182  181   580     1    107.300    585.760
   182  183   184     1    116.800    392.459
   182  183   582     1    117.000    711.280
   182  188   186     1    120.000    527.184
   183  182   181     1    124.000    585.760
   183  184   185     1    120.060    484.926
   183  184   186     1    124.000    585.760
   183  582   591     1    124.000    585.760
   184  183   582     1    117.000    711.280
   184  186   187     1    127.500    292.880
   185  184   186     1    127.500    292.880
   188  182   181     1    107.300    585.760
   188  182   183     1    124.000    585.760
   188  186   184     1    120.000    527.184
   188  186   187     1    127.500    292.880
   188  189   190     1    120.000    292.880
   189  188   182     1    120.000    527.184
   189  188   186     1    120.000    527.184
   189  191   580     1    117.300    711.280
   191  189   188     1    120.000    527.184
   191  189   190     1    120.000    292.880
   191  192   193     1    120.000    292.880
   191  580   181     1    117.300    711.280
   191  580   251     1    117.300    711.280
   192  191   189     1    134.900    711.280
   192  191   580     1    117.300    711.280
   192  194   579     1    117.300    711.280
   194  192   191     1    120.000    527.184
   194  192   193     1    120.000    292.880
   194  195   196     1    122.260    502.080
   194  579   251     1    117.300    711.280
   195  194   192     1    124.000    585.760
   195  194   579     1    124.000    585.760
   197  195   194     1    122.260    502.080
   197  195   196     1    122.260    502.080
   197  198   199     1    128.800    669.440
   198  197   195     1    121.310    632.202
   198  197   578     1    119.200    711.280
   200  198   197     1    111.400    677.808
   200  198   199     1    123.400    694.544
   201  200   198     1    116.900    694.544
   201  202   576     1    117.300    711.280
   201  577   578     1    117.300    711.280
   202  201   200     1    120.000    585.760
   202  203   204     1    120.000    292.880
   202  576   245     1    117.300    711.280
   203  202   201     1    134.900    711.280
   203  202   576     1    117.300    711.280
   203  205   575     1    117.300    711.280
   205  203   202     1    120.000    527.184
   205  203   204     1    120.000    292.880
   205  206   208     1    117.000    711.280
   205  575   211     1    117.300    711.280
   205  575   245     1    117.300    711.280
   206  205   203     1    134.900    711.280
   206  205   575     1    117.300    711.280
   206  208   209     1    120.000    292.880
   206  208   210     1    123.000    585.760
   207  206   205     1    120.000    292.880
   207  206   208     1    120.000    292.880
   210  208   209     1    118.770    482.666
   211  210   208     1    111.000    627.600
   211  212   574     1    120.000    527.184
   211  575   245     1    117.300    711.280
   212  211   210     1    120.000    585.760
   212  211   575     1    120.000    527.184
   212  574   244     1    117.300    711.280
   213  212   211     1    120.000    585.760
   213  212   574     1    120.000    585.760
   213  214   572     1    120.000    585.760
   214  213   212     1    116.300    627.600
   214  215   571     1    117.300    711.280
   214  572   407     1    120.000    527.184
   214  572   573     1    120.000    292.880
   215  214   213     1    120.000    585.760
   215  214   572     1    120.000    527.184
   215  216   574     1    117.300    711.280
   215  571   406     1    117.300    711.280
   215  571   569     1    117.300    711.280
   216  215   214     1    117.300    711.280
   216  215   571     1    117.300    711.280
   216  217   570     1    117.300    711.280
   216  574   212     1    117.300    711.280
   216  574   244     1    117.300    711.280
   217  216   215     1    117.300    711.280
   217  216   574     1    117.300    711.280
   217  218   569     1    117.300    711.280
   217  570   243     1    117.300    711.280
   217  570   567     1    117.300    711.280
   218  217   216     1    117.300    711.280
   218  217   570     1    117.300    711.280
   218  219   568     1    107.300    585.760
   218  569   403     1    117.300    711.280
   218  569   571     1    117.300    711.280
   219  218   217     1    107.300    585.760
   219  218   569     1    107.300    585.760
   219  220   567     1    120.000    527.184
   219  568   402     1    107.300    585.760
   220  219   218     1    107.300    585.760
   220  219   568     1    120.000    527.184
   220  221   566     1    120.000    527.184
   220  567   259     1    120.000    527.184
   220  567   570     1    120.000    527.184
   221  220   219     1    120.000    527.184
   221  220   567     1    120.000    527.184
   221  222   568     1    120.000    527.184
   221  566   230     1    120.000    527.184
   221  566   234     1    120.000    527.184
   222  221   220     1    120.000    527.184
   222  221   566     1    120.000    527.184
   222  223   565     1    120.000    527.184
   222  568   219     1    120.000    527.184
   222  568   402     1    120.000    527.184
   223  222   221     1    120.000    527.184
   223  222   568     1    120.000    527.184
   223  224   564     1    120.000    527.184
   223  565   230     1    120.000    527.184
   224  223   222     1    120.000    527.184
   224  223   565     1    120.000    527.184
   224  225   563     1    107.300    585.760
   224  564   401     1    107.300    585.760
   224  564   442     1    107.300    585.760
   225  224   223     1    120.000    527.184
   225  224   564     1    107.300    585.760
   225  226   565     1    120.000    527.184
   225  563   440     1    107.300    585.760
   225  563   441     1    107.300    585.760
   226  225   224     1    120.000    527.184
   226  225   563     1    107.300    585.760
   226  227   562     1    107.300    585.760
   226  565   223     1    120.000    527.184
   226  565   230     1    107.300    585.760
   227  226   225     1    107.300    585.760
   227  226   565     1    107.300    585.760
   227  228   561     1    117.300    711.280
   227  562   440     1    117.300    711.280
   227  562   503     1    117.300    711.280
   228  227   226     1    107.300    585.760
   228  227   562     1    117.300    711.280
   228  229   230     1    117.300    711.280
   228  561   267     1    117.300    711.280
   228  561   504     1    117.300    711.280
   229  228   227     1    117.300    711.280
   229  228   561     1    117.300    711.280
   229  230   565     1    107.300    585.760
   229  230   566     1    117.300    711.280
   229  231   560     1    107.300    585.760
   231  229   228     1    107.300    585.760
   231  229   230     1    107.300    585.760
   231  232   233     1    120.000    527.184
   231  560   267     1    107.300    585.760
   232  231   229     1    120.000    527.184
   232  231   560     1    120.000    527.184
   232  233   234     1    120.000    527.184
   232  233   260     1    120.000    527.184
   233  234   566     1    120.000    527.184
   234  566   230     1    120.000    527.184
   235  234   233     1    124.000    585.760
   235  234   566     1    124.000    585.760
   235  236   260     1    117.000    711.280
   235  259   567     1    124.000    585.760
   236  235   234     1    117.000    711.280
   236  235   259     1    117.000    711.280
   236  237   252     1    124.000    585.760
   236  260   233     1    124.000    585.760
   236  260   258     1    124.000    585.760
   237  236   235     1    124.000    585.760
   237  236   260     1    117.000    711.280
   237  238   259     1    117.000    711.280
   237  252   249     1    117.000    711.280
   237  252   253     1    124.000    585.760
   238  237   236     1    124.000    585.760
   238  237   252     1    124.000    585.760
   238  239   246     1    117.000    711.280
   238  259   235     1    120.060    484.926
   238  259   567     1    124.000    585.760
   239  238   237     1    124.000    585.760
   239  238   259     1    117.000    711.280
   239  240   243     1    124.000    585.760
   239  246   247     1    124.000    585.760
   240  239   238     1    117.000    711.280
   240  239   246     1    116.800    392.459
   240  241   576     1    125.200    585.760
   240  243   244     1    117.300    711.280
   240  243   570     1    117.300    711.280
   241  240   239     1    121.500    585.760
   241  240   243     1    106.200    585.760
   241  242   246     1    107.700    585.760
   241  576   202     1    106.200    585.760
   241  576   245     1    106.200    585.760
   242  241   240     1    125.200    585.760
   242  241   576     1    125.200    585.760
   242  246   239     1    124.000    585.760
   242  246   247     1    120.000    527.184
   242  577   201     1    117.300    711.280
   242  577   578     1    117.300    711.280
   243  244   574     1    117.300    711.280
   244  243   570     1    117.300    711.280
   244  245   576     1    117.300    711.280
   245  244   243     1    117.300    711.280
   245  244   574     1    117.300    711.280
   247  248   579     1    117.300    711.280
   247  249   250     1    107.300    585.760
   248  247   246     1    107.300    585.760
   248  578   197     1    117.300    711.280
   248  579   194     1    117.300    711.280
   248  579   251     1    117.300    711.280
   249  247   246     1    134.900    711.280
   249  247   248     1    107.300    585.760
   249  250   251     1    107.300    585.760
   249  250   581     1    120.000    527.184
   249  252   253     1    117.000    711.280
   250  251   579     1    107.300    585.760
   250  251   580     1    107.300    585.760
   250  581   253     1    124.000    585.760
   251  580   181     1    117.300    711.280
   252  249   247     1    124.000    585.760
   252  249   250     1    124.000    585.760
   252  253   254     1    124.000    585.760
   252  253   581     1    117.000    711.280
   255  254   253     1    117.000    711.280
   256  255   254     1    124.000    585.760
   256  255   583     1    120.000    527.184
   256  257   261     1    120.000    527.184
   256  584   175     1    107.300    585.760
   256  584   559     1    134.900    711.280
   257  256   255     1    120.000    527.184
   257  256   584     1    120.000    527.184
   257  258   254     1    124.000    585.760
   257  258   260     1    120.000    527.184
   257  261   232     1    120.000    527.184
   257  261   262     1    124.000    585.760
   258  254   253     1    117.000    711.280
   258  254   255     1    116.800    392.459
   258  257   256     1    120.000    527.184
   258  257   261     1    120.000    527.184
   258  260   233     1    120.000    527.184
   259  235   234     1    116.800    392.459
   260  233   234     1    120.000    527.184
   260  258   254     1    124.000    585.760
   261  232   231     1    120.000    527.184
   261  232   233     1    120.000    527.184
   261  262   263     1    117.000    711.280
   261  262   560     1    116.800    392.459
   262  261   232     1    124.000    585.760
   262  263   264     1    117.000    711.280
   262  560   231     1    124.000    585.760
   262  560   267     1    124.000    585.760
   265  264   263     1    124.000    585.760
   265  266   267     1    117.300    711.280
   266  265   264     1    107.300    585.760
   266  265   511     1    117.300    711.280
   266  267   560     1    107.300    585.760
   266  267   561     1    117.300    711.280
   266  268   510     1    117.300    711.280
   268  266   265     1    117.300    711.280
   268  266   267     1    117.300    711.280
   268  269   271     1    117.300    711.280
   268  510   504     1    117.300    711.280
   268  510   509     1    117.300    711.280
   269  268   266     1    117.300    711.280
   269  268   510     1    117.300    711.280
   269  270   511     1    117.300    711.280
   269  271   272     1    117.300    711.280
   270  269   268     1    117.300    711.280
   270  269   271     1    117.300    711.280
   270  511   265     1    117.300    711.280
   270  706   556     1    117.300    711.280
   271  272   509     1    117.300    711.280
   272  273   508     1    117.300    711.280
   272  509   510     1    117.300    711.280
   273  272   271     1    117.300    711.280
   273  272   509     1    117.300    711.280
   273  274   507     1    117.300    711.280
   273  508   337     1    117.300    711.280
   274  273   272     1    117.300    711.280
   274  273   508     1    117.300    711.280
   274  507   338     1    117.300    711.280
   274  507   491     1    117.300    711.280
   275  274   273     1    117.300    711.280
   275  274   507     1    117.300    711.280
   275  276   505     1    117.300    711.280
   275  506   502     1    117.300    711.280
   275  506   509     1    117.300    711.280
   276  275   274     1    117.300    711.280
   276  505   491     1    117.300    711.280
   276  505   499     1    117.300    711.280
   277  276   275     1    117.300    711.280
   277  276   505     1    117.300    711.280
   277  278   500     1    117.300    711.280
   277  501   502     1    117.300    711.280
   278  277   276     1    117.300    711.280
   278  277   501     1    117.300    711.280
   278  279   499     1    117.300    711.280
   278  500   435     1    117.300    711.280
   278  500   438     1    117.300    711.280
   279  278   277     1    117.300    711.280
   279  278   500     1    117.300    711.280
   279  280   498     1    117.300    711.280
   279  499   289     1    117.300    711.280
   279  499   505     1    117.300    711.280
   280  279   278     1    117.300    711.280
   280  279   499     1    117.300    711.280
   280  281   497     1    117.300    711.280
   280  498   427     1    117.300    711.280
   280  498   435     1    117.300    711.280
   281  280   279     1    117.300    711.280
   281  280   498     1    117.300    711.280
   281  282   496     1    117.300    711.280
   281  497   285     1    117.300    711.280
   281  497   289     1    117.300    711.280
   282  281   280     1    117.300    711.280
   282  281   497     1    117.300    711.280
   282  283   495     1    107.300    585.760
   282  496   427     1    117.300    711.280
   282  496   429     1    117.300    711.280
   283  282   281     1    117.300    711.280
   283  282   496     1    117.300    711.280
   283  284   285     1    117.300    711.280
   283  495   369     1    107.300    585.760
   283  495   430     1    107.300    585.760
   284  283   282     1    117.300    711.280
   284  283   495     1    107.300    585.760
   284  285   286     1    117.300    711.280
   284  285   497     1    117.300    711.280
   284  494   365     1    117.300    711.280
   285  286   287     1    117.300    711.280
   285  286   493     1    106.200    585.760
   285  497   289     1    117.300    711.280
   286  285   497     1    117.300    711.280
   286  287   288     1    117.300    711.280
   286  287   492     1    117.300    711.280
   286  493   365     1    125.200    585.760
   286  493   479     1    125.200    585.760
   287  286   493     1    106.200    585.760
   287  288   289     1    117.300    711.280
   287  288   290     1    117.300    711.280
   287  492   292     1    117.300    711.280
   287  492   480     1    117.300    711.280
   288  289   497     1    117.300    711.280
   289  499   505     1    117.300    711.280
   290  288   289     1    117.300    711.280
   290  491   505     1    117.300    711.280
   291  290   288     1    117.300    711.280
   291  290   491     1    117.300    711.280
   291  490   338     1    117.300    711.280
   292  291   290     1    117.300    711.280
   292  291   490     1    117.300    711.280
   292  293   294     1    117.300    711.280
   292  492   480     1    117.300    711.280
   293  292   291     1    117.300    711.280
   293  294   295     1    117.300    711.280
   293  294   488     1    117.300    711.280
   294  295   296     1    117.300    711.280
   294  295   487     1    117.300    711.280
   295  296   297     1    117.300    711.280
   296  486   478     1    117.300    711.280
   296  486   483     1    117.300    711.280
   297  296   486     1    117.300    711.280
   297  298   484     1    125.200    585.760
   298  297   296     1    106.200    585.760
   298  297   485     1    106.200    585.760
   298  299   483     1    106.200    585.760
   298  484   321     1    106.200    585.760
   299  298   297     1    125.200    585.760
   299  298   484     1    125.200    585.760
   299  483   482     1    117.300    711.280
   299  483   486     1    117.300    711.280
   300  299   298     1    108.700    585.760
   300  299   483     1    117.300    711.280
   300  301   350     1    134.900    711.280
   301  300   299     1    120.000    527.184
   301  302   484     1    117.300    711.280
   301  350   351     1    120.000    292.880
   302  301   300     1    117.300    711.280
   302  301   350     1    117.300    711.280
   302  303   349     1    117.300    711.280
   302  484   298     1    106.200    585.760
   302  484   321     1    117.300    711.280
   303  302   301     1    117.300    711.280
   303  302   484     1    117.300    711.280
   303  304   305     1    117.300    711.280
   303  349   308     1    117.300    711.280
   303  349   344     1    117.300    711.280
   304  303   302     1    117.300    711.280
   304  303   349     1    117.300    711.280
   304  305   306     1    120.000    292.880
   304  305   307     1    120.000    527.184
   304  347   350     1    120.000    527.184
   305  307   345     1    134.900    711.280
   307  305   306     1    120.000    292.880
   307  308   349     1    117.300    711.280
   307  345   346     1    120.000    292.880
   308  307   305     1    117.300    711.280
   308  307   345     1    117.300    711.280
   308  309   314     1    117.300    711.280
   308  349   344     1    117.300    711.280
   309  308   307     1    117.300    711.280
   309  308   349     1    117.300    711.280
   309  310   311     1    120.000    292.880
   309  314   315     1    117.300    711.280
   309  314   317     1    117.300    711.280
   310  309   308     1    117.300    711.280
   310  309   314     1    117.300    711.280
   310  312   345     1    120.000    527.184
   312  310   309     1    120.000    527.184
   312  310   311     1    120.000    292.880
   312  345   307     1    120.000    527.184
   312  345   346     1    120.000    292.880
   313  312   310     1    120.000    292.880
   313  312   345     1    120.000    292.880
   314  315   316     1    120.000    292.880
   314  315   692     1    120.000    527.184
   314  317   344     1    117.300    711.280
   317  314   315     1    117.300    711.280
   317  318   343     1    107.300    585.760
   317  344   349     1    117.300    711.280
   318  317   314     1    117.300    711.280
   318  317   344     1    117.300    711.280
   318  319   322     1    117.300    711.280
   318  343   692     1    107.300    585.760
   318  343   693     1    107.300    585.760
   319  318   317     1    117.300    711.280
   319  318   343     1    107.300    585.760
   319  320   485     1    117.300    711.280
   319  322   323     1    117.300    711.280
   319  322   324     1    117.300    711.280
   320  319   318     1    117.300    711.280
   320  319   322     1    117.300    711.280
   320  321   344     1    117.300    711.280
   320  485   297     1    117.300    711.280
   320  485   325     1    117.300    711.280
   321  320   319     1    117.300    711.280
   321  320   485     1    117.300    711.280
   321  344   317     1    117.300    711.280
   321  344   349     1    117.300    711.280
   322  324   325     1    117.300    711.280
   322  324   326     1    117.300    711.280
   323  322   324     1    117.300    711.280
   324  325   485     1    117.300    711.280
   324  325   487     1    117.300    711.280
   324  326   341     1    117.300    711.280
   325  324   326     1    117.300    711.280
   325  485   297     1    117.300    711.280
   325  487   295     1    117.300    711.280
   327  326   324     1    117.300    711.280
   327  326   341     1    117.300    711.280
   327  328   698     1    124.000    585.760
   327  696    10     1    120.000    527.184
   327  696   323     1    120.000    527.184
   328  327   326     1    107.300    585.760
   328  327   696     1    134.900    711.280
   328  329   340     1    107.300    585.760
   328  698     8     1    117.000    711.280
   329  328   327     1    107.300    585.760
   329  328   698     1    124.000    585.760
   329  330   331     1    107.300    585.760
   329  340   335     1    107.300    585.760
   329  340   341     1    107.300    585.760
   330  329   328     1    120.000    527.184
   330  329   340     1    107.300    585.760
   330  331   332     1    107.300    585.760
   330  331   334     1    107.300    585.760
   330  339   698     1    124.000    585.760
   330  339   701     1    107.300    585.760
   331  332   333     1    117.300    711.280
   331  332   704     1    117.300    711.280
   331  334   337     1    117.300    711.280
   332  333   508     1    117.300    711.280
   332  333   705     1    117.300    711.280
   332  704     2     1    117.300    711.280
   332  704   701     1    117.300    711.280
   333  332   704     1    117.300    711.280
   333  508   273     1    117.300    711.280
   333  508   337     1    117.300    711.280
   333  705     1     1    117.300    711.280
   333  705   271     1    117.300    711.280
   334  331   332     1    117.300    711.280
   334  335   336     1    117.300    711.280
   334  337   338     1    117.300    711.280
   334  337   508     1    117.300    711.280
   335  334   331     1    117.300    711.280
   335  334   337     1    117.300    711.280
   335  336   489     1    117.300    711.280
   335  336   490     1    117.300    711.280
   336  489   293     1    117.300    711.280
   336  490   291     1    117.300    711.280
   336  490   338     1    117.300    711.280
   337  338   490     1    117.300    711.280
   337  338   507     1    117.300    711.280
   338  337   508     1    117.300    711.280
   338  507   491     1    117.300    711.280
   339  330   329     1    120.000    527.184
   339  330   331     1    107.300    585.760
   339  698     8     1    117.000    711.280
   339  698   328     1    116.800    392.459
   339  701     5     1    107.300    585.760
   339  701   704     1    107.300    585.760
   340  335   334     1    117.300    711.280
   340  335   336     1    117.300    711.280
   340  341   326     1    117.300    711.280
   341  340   335     1    117.300    711.280
   341  342   487     1    117.300    711.280
   341  342   489     1    117.300    711.280
   342  341   326     1    117.300    711.280
   342  341   340     1    117.300    711.280
   342  487   295     1    117.300    711.280
   342  487   325     1    117.300    711.280
   342  489   293     1    117.300    711.280
   342  489   336     1    117.300    711.280
   343  692   315     1    120.000    527.184
   343  693   323     1    107.300    585.760
   347  304   303     1    117.300    711.280
   347  304   305     1    134.900    711.280
   347  350   301     1    120.000    527.184
   347  350   351     1    120.000    292.880
   348  347   304     1    120.000    292.880
   348  347   350     1    120.000    292.880
   352  300   299     1    120.000    585.760
   352  300   301     1    120.000    585.760
   352  353   482     1    120.000    585.760
   353  352   300     1    116.300    627.600
   353  482   477     1    117.300    711.280
   353  482   483     1    117.300    711.280
   354  353   352     1    120.000    585.760
   354  353   482     1    120.000    527.184
   354  356   481     1    108.700    585.760
   355  354   353     1    120.000    292.880
   356  354   353     1    124.000    585.760
   356  354   355     1    120.000    292.880
   356  357   358     1    120.000    292.880
   356  481   477     1    125.200    585.760
   357  356   354     1    117.000    711.280
   357  356   481     1    121.200    585.760
   359  357   356     1    123.000    585.760
   359  357   358     1    118.770    482.666
   359  360   361     1    118.770    482.666
   360  359   357     1    111.000    627.600
   360  362   481     1    121.200    585.760
   362  360   359     1    123.000    585.760
   362  360   361     1    120.000    292.880
   362  481   356     1    125.200    585.760
   362  481   477     1    125.200    585.760
   363  362   360     1    117.000    711.280
   363  362   481     1    108.700    585.760
   363  364   365     1    120.000    527.184
   363  475   476     1    117.300    711.280
   363  475   479     1    117.300    711.280
   364  363   362     1    134.900    711.280
   364  363   475     1    117.300    711.280
   364  365   493     1    108.700    585.760
   366  364   363     1    120.000    585.760
   366  364   365     1    120.000    585.760
   366  367   474     1    120.000    585.760
   367  366   364     1    111.000    627.600
   367  368   369     1    134.900    711.280
   367  474   471     1    120.000    585.760
   367  474   472     1    120.000    527.184
   368  367   366     1    120.000    585.760
   368  367   474     1    120.000    527.184
   368  369   370     1    124.000    585.760
   368  369   495     1    107.300    585.760
   368  494   284     1    117.300    711.280
   368  494   365     1    117.300    711.280
   369  370   473     1    116.800    392.459
   369  495   430     1    120.000    527.184
   370  369   495     1    124.000    585.760
   370  371   472     1    117.000    711.280
   370  473   430     1    124.000    585.760
   370  473   459     1    124.000    585.760
   371  370   369     1    117.000    711.280
   371  370   473     1    117.000    711.280
   371  372   465     1    124.000    585.760
   371  472   466     1    124.000    585.760
   371  472   474     1    124.000    585.760
   372  371   370     1    117.000    711.280
   372  371   472     1    116.800    392.459
   372  373   374     1    107.300    585.760
   372  465   463     1    120.000    527.184
   372  465   466     1    120.000    527.184
   373  372   371     1    124.000    585.760
   373  372   465     1    107.300    585.760
   373  374   375     1    117.300    711.280
   373  374   459     1    117.300    711.280
   373  460   457     1    117.300    711.280
   374  375   456     1    117.300    711.280
   374  459   473     1    107.300    585.760
   375  456   453     1    117.300    711.280
   375  456   457     1    117.300    711.280
   376  375   374     1    106.200    585.760
   376  375   456     1    106.200    585.760
   376  377   378     1    106.200    585.760
   376  377   452     1    108.700    585.760
   376  455   431     1    106.200    585.760
   376  455   432     1    106.200    585.760
   377  376   375     1    125.200    585.760
   377  378   379     1    117.300    711.280
   377  452   450     1    120.000    585.760
   377  452   453     1    120.000    527.184
   378  377   452     1    117.300    711.280
   378  379   449     1    117.300    711.280
   379  449   383     1    120.000    527.184
   380  379   378     1    106.200    585.760
   380  379   449     1    108.700    585.760
   380  381   382     1    106.200    585.760
   380  381   447     1    106.200    585.760
   380  448   395     1    106.200    585.760
   380  448   423     1    106.200    585.760
   381  380   379     1    125.200    585.760
   381  382   383     1    117.300    711.280
   381  382   385     1    117.300    711.280
   381  447   388     1    117.300    711.280
   381  447   394     1    117.300    711.280
   382  383   384     1    120.000    292.880
   382  385   386     1    120.000    292.880
   383  382   385     1    134.900    711.280
   387  385   382     1    120.000    585.760
   387  385   386     1    118.770    482.666
   387  388   389     1    120.000    585.760
   388  387   385     1    111.000    627.600
   388  389   390     1    120.000    527.184
   388  389   446     1    120.000    292.880
   389  390   391     1    120.000    292.880
   389  390   392     1    120.000    527.184
   390  389   446     1    120.000    292.880
   390  392   393     1    120.000    292.880
   392  390   391     1    120.000    292.880
   394  392   390     1    120.000    527.184
   394  392   393     1    120.000    292.880
   394  447   388     1    117.300    711.280
   395  394   392     1    117.300    711.280
   395  394   447     1    117.300    711.280
   395  396   445     1    107.300    585.760
   396  395   394     1    107.300    585.760
   396  397   444     1    108.700    585.760
   397  396   395     1    107.300    585.760
   397  396   445     1    120.000    527.184
   397  398   399     1    107.300    585.760
   397  444   410     1    125.200    585.760
   397  444   416     1    125.200    585.760
   398  397   396     1    120.000    527.184
   398  397   444     1    108.700    585.760
   398  399   400     1    107.300    585.760
   398  399   417     1    107.300    585.760
   398  443   445     1    120.000    527.184
   399  400   401     1    117.300    711.280
   399  400   416     1    117.300    711.280
   400  401   564     1    117.300    711.280
   400  416   404     1    117.300    711.280
   400  416   444     1    106.200    585.760
   401  400   416     1    117.300    711.280
   401  402   568     1    107.300    585.760
   402  401   400     1    117.300    711.280
   402  401   564     1    117.300    711.280
   402  403   569     1    117.300    711.280
   403  402   401     1    117.300    711.280
   403  402   568     1    107.300    585.760
   403  404   416     1    117.300    711.280
   403  569   571     1    117.300    711.280
   404  403   402     1    117.300    711.280
   404  403   569     1    117.300    711.280
   404  405   406     1    117.300    711.280
   404  416   444     1    106.200    585.760
   405  404   403     1    117.300    711.280
   405  406   407     1    117.300    711.280
   405  406   571     1    117.300    711.280
   405  409   410     1    107.300    585.760
   406  407   408     1    120.000    292.880
   406  407   572     1    120.000    527.184
   406  571   569     1    117.300    711.280
   407  406   571     1    117.300    711.280
   407  572   573     1    120.000    292.880
   409  405   404     1    117.300    711.280
   409  405   406     1    117.300    711.280
   409  410   444     1    108.700    585.760
   410  411   412     1    127.500    292.880
   411  410   409     1    107.300    585.760
   411  410   444     1    108.700    585.760
   411  413   414     1    128.200    669.440
   411  413   415     1    111.400    677.808
   413  411   410     1    120.000    711.280
   413  411   412     1    120.000    292.880
   413  415   409     1    116.900    694.544
   415  409   405     1    110.600    585.760
   415  409   410     1    120.000    585.760
   415  413   414     1    123.400    694.544
   416  404   405     1    117.300    711.280
   416  444   410     1    125.200    585.760
   417  399   400     1    117.300    711.280
   417  442   564     1    117.300    711.280
   418  417   399     1    117.300    711.280
   418  436   434     1    117.300    711.280
   419  418   417     1    117.300    711.280
   419  418   436     1    117.300    711.280
   419  420   433     1    117.300    711.280
   419  443   398     1    107.300    585.760
   419  443   445     1    107.300    585.760
   420  419   418     1    117.300    711.280
   420  419   443     1    107.300    585.760
   420  421   422     1    117.300    711.280
   420  433   426     1    117.300    711.280
   420  433   434     1    117.300    711.280
   421  420   419     1    117.300    711.280
   421  420   433     1    117.300    711.280
   421  422   423     1    117.300    711.280
   421  422   445     1    107.300    585.760
   421  424   432     1    117.300    711.280
   422  423   451     1    117.300    711.280
   422  445   396     1    107.300    585.760
   422  445   443     1    107.300    585.760
   423  422   445     1    107.300    585.760
   423  448   395     1    117.300    711.280
   423  451   378     1    117.300    711.280
   423  451   432     1    117.300    711.280
   424  421   420     1    117.300    711.280
   424  421   422     1    117.300    711.280
   424  425   426     1    117.300    711.280
   424  432   451     1    117.300    711.280
   425  424   421     1    117.300    711.280
   425  424   432     1    117.300    711.280
   425  426   427     1    117.300    711.280
   425  426   433     1    117.300    711.280
   425  428   429     1    117.300    711.280
   426  427   496     1    117.300    711.280
   426  427   498     1    117.300    711.280
   426  433   434     1    117.300    711.280
   428  425   424     1    117.300    711.280
   428  425   426     1    117.300    711.280
   428  429   496     1    117.300    711.280
   428  431   459     1    117.300    711.280
   429  430   473     1    107.300    585.760
   429  430   495     1    107.300    585.760
   429  496   427     1    117.300    711.280
   430  429   428     1    107.300    585.760
   430  429   496     1    107.300    585.760
   430  473   459     1    107.300    585.760
   431  428   425     1    117.300    711.280
   431  428   429     1    117.300    711.280
   431  455   432     1    117.300    711.280
   431  459   374     1    117.300    711.280
   431  459   473     1    107.300    585.760
   432  451   378     1    117.300    711.280
   433  426   427     1    117.300    711.280
   433  434   435     1    117.300    711.280
   435  498   427     1    117.300    711.280
   436  418   417     1    117.300    711.280
   436  434   433     1    117.300    711.280
   436  434   435     1    117.300    711.280
   437  436   418     1    117.300    711.280
   437  436   434     1    117.300    711.280
   437  441   563     1    117.300    711.280
   438  437   436     1    117.300    711.280
   438  437   441     1    117.300    711.280
   438  500   435     1    117.300    711.280
   439  438   437     1    117.300    711.280
   439  438   500     1    117.300    711.280
   439  440   562     1    117.300    711.280
   439  440   563     1    117.300    711.280
   439  501   277     1    117.300    711.280
   439  501   502     1    117.300    711.280
   440  439   438     1    117.300    711.280
   440  439   501     1    117.300    711.280
   440  562   503     1    117.300    711.280
   440  563   441     1    117.300    711.280
   441  437   436     1    117.300    711.280
   441  442   417     1    117.300    711.280
   441  442   564     1    117.300    711.280
   442  417   399     1    117.300    711.280
   442  417   418     1    117.300    711.280
   442  441   437     1    117.300    711.280
   442  441   563     1    117.300    711.280
   442  564   401     1    117.300    711.280
   443  398   397     1    120.000    527.184
   443  398   399     1    107.300    585.760
   443  419   418     1    107.300    585.760
   443  445   396     1    120.000    527.184
   447  381   382     1    117.300    711.280
   447  388   387     1    120.000    585.760
   447  388   389     1    120.000    527.184
   447  394   392     1    117.300    711.280
   448  380   379     1    125.200    585.760
   448  380   381     1    125.200    585.760
   448  395   394     1    117.300    711.280
   448  395   396     1    107.300    585.760
   448  423   422     1    117.300    711.280
   448  423   451     1    117.300    711.280
   449  383   382     1    120.000    527.184
   449  383   384     1    120.000    292.880
   450  449   379     1    120.000    585.760
   450  449   383     1    120.000    585.760
   451  378   377     1    117.300    711.280
   451  378   379     1    117.300    711.280
   452  450   449     1    116.300    627.600
   452  453   454     1    120.000    292.880
   453  452   450     1    120.000    585.760
   453  456   457     1    134.900    711.280
   455  376   375     1    125.200    585.760
   455  376   377     1    125.200    585.760
   455  431   428     1    117.300    711.280
   455  431   459     1    117.300    711.280
   455  432   424     1    117.300    711.280
   455  432   451     1    117.300    711.280
   456  453   452     1    120.000    527.184
   456  453   454     1    120.000    292.880
   456  457   458     1    120.000    292.880
   459  374   375     1    117.300    711.280
   460  373   372     1    107.300    585.760
   460  373   374     1    117.300    711.280
   460  457   456     1    120.000    527.184
   460  457   458     1    120.000    292.880
   460  461   463     1    120.000    527.184
   461  460   373     1    117.300    711.280
   461  460   457     1    134.900    711.280
   461  463   464     1    120.000    292.880
   461  463   465     1    120.000    527.184
   462  461   460     1    120.000    292.880
   462  461   463     1    120.000    292.880
   463  465   466     1    120.000    527.184
   464  463   465     1    120.000    292.880
   465  466   467     1    120.000    527.184
   466  467   468     1    120.000    292.880
   466  467   469     1    117.000    711.280
   467  469   470     1    120.000    292.880
   467  469   471     1    123.000    585.760
   468  467   469     1    120.000    292.880
   470  469   471     1    118.770    482.666
   472  466   465     1    120.000    527.184
   472  466   467     1    120.000    527.184
   472  474   471     1    120.000    585.760
   473  430   495     1    120.000    527.184
   474  471   469     1    111.000    627.600
   474  472   466     1    120.000    527.184
   475  363   362     1    117.300    711.280
   475  476   477     1    117.300    711.280
   475  476   478     1    117.300    711.280
   475  479   480     1    117.300    711.280
   475  479   493     1    106.200    585.760
   476  475   479     1    117.300    711.280
   476  477   481     1    106.200    585.760
   476  477   482     1    117.300    711.280
   476  478   488     1    117.300    711.280
   477  482   483     1    117.300    711.280
   478  476   477     1    117.300    711.280
   478  486   483     1    117.300    711.280
   478  488   294     1    117.300    711.280
   479  480   488     1    117.300    711.280
   479  493   365     1    125.200    585.760
   480  479   493     1    106.200    585.760
   480  488   294     1    117.300    711.280
   480  488   478     1    117.300    711.280
   481  477   482     1    106.200    585.760
   484  321   320     1    117.300    711.280
   484  321   344     1    117.300    711.280
   485  297   296     1    117.300    711.280
   485  325   487     1    117.300    711.280
   486  296   295     1    117.300    711.280
   486  478   476     1    117.300    711.280
   486  478   488     1    117.300    711.280
   486  483   482     1    117.300    711.280
   487  295   296     1    117.300    711.280
   487  342   489     1    117.300    711.280
   488  294   295     1    117.300    711.280
   489  293   292     1    117.300    711.280
   489  293   294     1    117.300    711.280
   489  336   490     1    117.300    711.280
   490  291   290     1    117.300    711.280
   490  338   507     1    117.300    711.280
   491  290   288     1    117.300    711.280
   492  287   288     1    117.300    711.280
   492  292   291     1    117.300    711.280
   492  292   293     1    117.300    711.280
   492  480   479     1    117.300    711.280
   492  480   488     1    117.300    711.280
   494  284   283     1    117.300    711.280
   494  284   285     1    117.300    711.280
   494  365   364     1    117.300    711.280
   494  365   493     1    106.200    585.760
   494  368   367     1    117.300    711.280
   494  368   369     1    107.300    585.760
   498  427   496     1    117.300    711.280
   498  435   434     1    117.300    711.280
   499  289   288     1    117.300    711.280
   499  289   497     1    117.300    711.280
   499  505   491     1    117.300    711.280
   500  435   434     1    117.300    711.280
   500  435   498     1    117.300    711.280
   500  438   437     1    117.300    711.280
   501  277   276     1    117.300    711.280
   501  439   438     1    117.300    711.280
   501  502   503     1    117.300    711.280
   502  503   504     1    117.300    711.280
   502  506   509     1    117.300    711.280
   503  504   510     1    117.300    711.280
   503  504   561     1    117.300    711.280
   504  561   267     1    117.300    711.280
   506  275   274     1    117.300    711.280
   506  275   276     1    117.300    711.280
   506  502   501     1    117.300    711.280
   506  502   503     1    117.300    711.280
   506  509   272     1    117.300    711.280
   506  509   510     1    117.300    711.280
   507  491   290     1    117.300    711.280
   507  491   505     1    117.300    711.280
   509  510   504     1    117.300    711.280
   510  504   561     1    117.300    711.280
   511  265   264     1    107.300    585.760
   512  511   265     1    117.300    711.280
   512  511   270     1    117.300    711.280
   512  555   516     1    117.300    711.280
   512  555   556     1    117.300    711.280
   513  512   511     1    117.300    711.280
   513  512   555     1    117.300    711.280
   513  514   515     1    117.300    711.280
   513  557   264     1    107.300    585.760
   514  513   512     1    117.300    711.280
   514  515   516     1    117.300    711.280
   514  515   553     1    117.300    711.280
   514  554   587     1    117.300    711.280
   515  516   517     1    117.300    711.280
   516  515   553     1    117.300    711.280
   516  517   518     1    117.300    711.280
   516  517   552     1    117.300    711.280
   516  555   556     1    117.300    711.280
   517  518   703     1    117.300    711.280
   517  552   530     1    117.300    711.280
   518  517   552     1    117.300    711.280
   518  519   702     1    117.300    711.280
   518  703   556     1    117.300    711.280
   519  518   517     1    117.300    711.280
   519  518   703     1    117.300    711.280
   519  520   551     1    117.300    711.280
   519  702   543     1    117.300    711.280
   520  519   518     1    117.300    711.280
   520  519   702     1    117.300    711.280
   520  521   522     1    117.300    711.280
   520  521   552     1    117.300    711.280
   520  551   537     1    117.300    711.280
   520  551   542     1    117.300    711.280
   521  520   519     1    117.300    711.280
   521  520   551     1    117.300    711.280
   521  522   523     1    117.300    711.280
   521  522   550     1    117.300    711.280
   521  552   517     1    117.300    711.280
   521  552   530     1    117.300    711.280
   522  521   552     1    117.300    711.280
   522  523   524     1    117.300    711.280
   522  523   531     1    107.300    585.760
   522  550   533     1    117.300    711.280
   522  550   537     1    117.300    711.280
   523  524   530     1    117.300    711.280
   523  531   529     1    107.300    585.760
   524  523   531     1    107.300    585.760
   524  525   526     1    117.300    711.280
   524  530   552     1    117.300    711.280
   524  530   553     1    117.300    711.280
   525  524   523     1    117.300    711.280
   525  524   530     1    117.300    711.280
   525  526   527     1    117.300    711.280
   525  526   588     1    117.300    711.280
   525  528   529     1    107.300    585.760
   525  528   636     1    117.300    711.280
   526  527   553     1    117.300    711.280
   526  527   587     1    117.300    711.280
   527  553   515     1    117.300    711.280
   527  553   530     1    117.300    711.280
   528  525   524     1    117.300    711.280
   528  525   526     1    117.300    711.280
   528  529   531     1    107.300    585.760
   528  529   638     1    124.000    585.760
   528  636   160     1    117.300    711.280
   528  636   589     1    117.300    711.280
   530  553   515     1    117.300    711.280
   532  531   523     1    107.300    585.760
   532  531   529     1    120.000    527.184
   532  548   549     1    107.300    585.760
   532  548   638     1    124.000    585.760
   533  532   531     1    107.300    585.760
   533  532   548     1    107.300    585.760
   533  534   643     1    117.300    711.280
   533  550   537     1    117.300    711.280
   534  533   532     1    107.300    585.760
   534  533   550     1    117.300    711.280
   534  535   644     1    117.300    711.280
   534  643   549     1    117.300    711.280
   535  534   533     1    117.300    711.280
   535  534   643     1    117.300    711.280
   535  536   537     1    117.300    711.280
   535  644   540     1    117.300    711.280
   536  535   534     1    117.300    711.280
   536  535   644     1    117.300    711.280
   536  537   550     1    117.300    711.280
   536  537   551     1    117.300    711.280
   536  538   539     1    117.300    711.280
   537  551   542     1    117.300    711.280
   538  536   535     1    117.300    711.280
   538  536   537     1    117.300    711.280
   538  539   540     1    117.300    711.280
   538  539   678     1    117.300    711.280
   538  541   542     1    117.300    711.280
   539  540   644     1    117.300    711.280
   539  678    59     1    117.300    711.280
   539  678   547     1    107.300    585.760
   540  539   678     1    117.300    711.280
   541  538   536     1    117.300    711.280
   541  538   539     1    117.300    711.280
   541  542   543     1    117.300    711.280
   541  542   551     1    117.300    711.280
   541  544   547     1    107.300    585.760
   542  543   700     1    117.300    711.280
   543  542   551     1    117.300    711.280
   544  541   538     1    107.300    585.760
   544  541   542     1    107.300    585.760
   544  545   546     1    120.000    527.184
   544  545   700     1    107.300    585.760
   544  547   678     1    107.300    585.760
   544  547   680     1    124.000    585.760
   545  544   541     1    107.300    585.760
   545  544   547     1    120.000    527.184
   545  546   680     1    124.000    585.760
   545  546   699     1    120.000    527.184
   545  700     6     1    107.300    585.760
   545  700   543     1    107.300    585.760
   547  678    59     1    107.300    585.760
   547  680   546     1    116.800    392.459
   548  532   531     1    120.000    527.184
   548  549   642     1    107.300    585.760
   548  549   643     1    107.300    585.760
   548  638   158     1    117.000    711.280
   548  638   529     1    116.800    392.459
   549  548   638     1    124.000    585.760
   549  642    96     1    117.300    711.280
   549  642   156     1    117.300    711.280
   550  522   523     1    117.300    711.280
   550  533   532     1    107.300    585.760
   550  537   551     1    117.300    711.280
   553  530   552     1    117.300    711.280
   554  514   513     1    117.300    711.280
   554  514   515     1    117.300    711.280
   554  585   174     1    117.300    711.280
   554  587   172     1    117.300    711.280
   554  587   527     1    117.300    711.280
   555  512   511     1    117.300    711.280
   555  516   515     1    117.300    711.280
   555  516   517     1    117.300    711.280
   555  556   703     1    117.300    711.280
   555  556   706     1    117.300    711.280
   557  264   263     1    124.000    585.760
   557  264   265     1    107.300    585.760
   557  513   512     1    107.300    585.760
   557  513   514     1    107.300    585.760
   557  558   585     1    107.300    585.760
   558  557   264     1    120.000    527.184
   558  557   513     1    107.300    585.760
   558  559   263     1    124.000    585.760
   558  585   174     1    107.300    585.760
   558  585   554     1    107.300    585.760
   559  263   262     1    117.000    711.280
   559  263   264     1    116.800    392.459
   559  558   557     1    120.000    527.184
   559  558   585     1    107.300    585.760
   559  584   175     1    107.300    585.760
   560  262   263     1    117.000    711.280
   561  267   560     1    107.300    585.760
   562  503   502     1    117.300    711.280
   562  503   504     1    117.300    711.280
   563  440   562     1    117.300    711.280
   566  230   565     1    134.900    711.280
   567  570   243     1    117.300    711.280
   570  567   259     1    120.000    527.184
   572  407   408     1    120.000    292.880
   575  211   210     1    120.000    585.760
   575  245   244     1    117.300    711.280
   575  245   576     1    117.300    711.280
   577  201   200     1    120.000    585.760
   577  201   202     1    120.000    527.184
   577  242   241     1    106.200    585.760
   577  242   246     1    107.300    585.760
   577  578   197     1    117.300    711.280
   577  578   248     1    117.300    711.280
   578  197   195     1    124.000    585.760
   578  248   247     1    117.300    711.280
   578  248   579     1    117.300    711.280
   579  251   580     1    117.300    711.280
   581  250   251     1    107.300    585.760
   581  253   254     1    117.000    711.280
   583  255   254     1    124.000    585.760
   584  175   174     1    117.300    711.280
   584  175   176     1    107.300    585.760
   584  256   255     1    120.000    527.184
   584  559   263     1    124.000    585.760
   584  559   558     1    107.300    585.760
   585  174   173     1    117.300    711.280
   585  174   175     1    117.300    711.280
   585  554   514     1    117.300    711.280
   585  554   587     1    117.300    711.280
   586  591   582     1    117.000    711.280
   587  527   553     1    117.300    711.280
   588  526   527     1    117.300    711.280
   588  589   636     1    117.300    711.280
   589  588   171     1    117.300    711.280
   589  588   526     1    117.300    711.280
   589  590   594     1    107.300    585.760
   590  589   588     1    117.300    711.280
   590  589   636     1    117.300    711.280
   590  594   170     1    107.300    585.760
   592  595   596     1    116.800    392.459
   595  592   593     1    120.060    484.926
   595  596   597     1    124.000    585.760
   596  597   598     1    120.000    292.880
   596  597   599     1    117.000    711.280
   597  599   600     1    120.000    292.880
   597  599   601     1    123.000    585.760
   599  597   598     1    120.000    292.880
   601  599   600     1    118.770    482.666
   602  601   599     1    111.000    627.600
   602  632   596     1    120.000    527.184
   603  602   601     1    120.000    585.760
   603  602   632     1    120.000    527.184
   604  603   602     1    120.000    585.760
   604  605   631     1    120.000    585.760
   605  604   603     1    116.300    627.600
   605  606   608     1    120.000    527.184
   605  631   611     1    117.300    711.280
   606  605   604     1    120.000    585.760
   606  605   631     1    120.000    527.184
   606  608   609     1    120.000    292.880
   606  608   610     1    120.000    527.184
   607  606   605     1    120.000    292.880
   607  606   608     1    120.000    292.880
   608  610   611     1    117.300    711.280
   608  610   630     1    134.900    711.280
   610  608   609     1    120.000    292.880
   610  611   612     1    107.300    585.760
   610  630   628     1    120.000    585.760
   610  630   629     1    120.000    527.184
   611  610   630     1    117.300    711.280
   611  612   613     1    124.000    585.760
   611  612   617     1    107.300    585.760
   612  613   614     1    117.000    711.280
   612  613   640     1    116.800    392.459
   612  617   618     1    120.000    527.184
   612  617   629     1    107.300    585.760
   614  613   640     1    117.000    711.280
   614  615   634     1    124.000    585.760
   614  639   637     1    124.000    585.760
   615  614   613     1    117.000    711.280
   615  614   639     1    117.000    711.280
   615  616   631     1    107.300    585.760
   615  616   633     1    107.300    585.760
   615  634   162     1    120.000    527.184
   615  634   637     1    124.000    585.760
   616  615   614     1    124.000    585.760
   616  615   634     1    120.000    527.184
   616  631   605     1    117.300    711.280
   616  631   611     1    117.300    711.280
   616  633   163     1    107.300    585.760
   616  633   603     1    117.300    711.280
   617  612   613     1    124.000    585.760
   617  618   619     1    120.000    527.184
   617  618   640     1    120.000    527.184
   617  629   623     1    107.300    585.760
   618  617   629     1    107.300    585.760
   618  619   620     1    120.000    292.880
   618  619   621     1    120.000    527.184
   618  640   155     1    120.000    527.184
   618  640   613     1    124.000    585.760
   619  618   640     1    120.000    527.184
   619  621   622     1    120.000    292.880
   619  621   623     1    120.000    527.184
   620  619   621     1    120.000    292.880
   621  623   624     1    134.900    711.280
   621  623   629     1    117.300    711.280
   622  621   623     1    120.000    292.880
   623  624   625     1    120.000    292.880
   624  623   629     1    117.300    711.280
   624  626   627     1    120.000    292.880
   626  624   623     1    117.000    711.280
   626  624   625     1    120.000    292.880
   628  626   624     1    123.000    585.760
   628  626   627     1    118.770    482.666
   628  630   629     1    120.000    585.760
   630  628   626     1    111.000    627.600
   630  629   617     1    134.900    711.280
   630  629   623     1    117.300    711.280
   631  611   610     1    117.300    711.280
   631  611   612     1    107.300    585.760
   632  596   595     1    124.000    585.760
   632  596   597     1    120.000    527.184
   632  602   601     1    120.000    585.760
   633  163   162     1    120.000    527.184
   633  163   164     1    124.000    585.760
   633  603   602     1    120.000    527.184
   633  603   604     1    120.000    585.760
   633  616   631     1    117.300    711.280
   635  590   589     1    107.300    585.760
   635  590   594     1    134.900    711.280
   636  528   529     1    107.300    585.760
   638  529   531     1    124.000    585.760
   639  614   613     1    124.000    585.760
   639  637   634     1    117.000    711.280
   642   96    97     1    117.300    711.280
   642  156   155     1    120.000    527.184
   642  156   157     1    120.000    527.184
   642  549   643     1    117.300    711.280
   645   90    88     1    117.300    711.280
   645   95    96     1    117.300    711.280
   645  646    86     1    117.300    711.280
   645  646   641     1    117.300    711.280
   647   85    86     1    117.300    711.280
   647  128   152     1    117.300    711.280
   647  153   100     1    117.300    711.280
   647  153   641     1    117.300    711.280
   648   84    85     1    117.300    711.280
   648  127   128     1    117.300    711.280
   648  652    81     1    117.300    711.280
   648  652   126     1    107.300    585.760
   649   83    82     1    117.300    711.280
   649  650   662     1    117.300    711.280
   649  650   673     1    117.300    711.280
   650  662   651     1    117.300    711.280
   650  673    89     1    117.300    711.280
   653  126   125     1    120.000    527.184
   653  126   652     1    107.300    585.760
   653  130   129     1    124.000    585.760
   653  130   131     1    107.300    585.760
   654  131   130     1    107.300    585.760
   654  131   132     1    117.300    711.280
   654  141   134     1    120.000    527.184
   655   76    77     1    107.300    585.760
   655   80    79     1    107.300    585.760
   655   80   658     1    107.300    585.760
   656   75    76     1    120.000    585.760
   656  141   134     1    120.000    585.760
   656  141   654     1    120.000    585.760
   659   67    66     1    120.000    585.760
   659  660   661     1    123.400    694.544
   659  660   663     1    111.400    677.808
   660  663    65     1    119.200    711.280
   660  663   664     1    119.200    711.280
   661  660   663     1    128.800    669.440
   662  651   658     1    117.300    711.280
   663  664   674     1    117.300    711.280
   664  665   666     1    120.000    292.880
   664  665   667     1    120.000    527.184
   665  664   663     1    117.300    711.280
   665  667   668     1    120.000    292.880
   667  665   666     1    120.000    292.880
   669  667   665     1    120.000    527.184
   669  667   668     1    120.000    292.880
   669  670   679     1    116.800    392.459
   669  672   676     1    120.000    527.184
   670  669   667     1    124.000    585.760
   670  669   672     1    124.000    585.760
   670  671   682     1    117.000    711.280
   670  671   683     1    124.000    585.760
   670  679    58     1    124.000    585.760
   670  679   676     1    124.000    585.760
   671  670   669     1    117.000    711.280
   671  670   679     1    117.000    711.280
   671  682    49     1    124.000    585.760
   671  682   681     1    124.000    585.760
   671  683    48     1    124.000    585.760
   671  683   685     1    117.000    711.280
   672  669   667     1    120.000    527.184
   672  674   664     1    107.300    585.760
   673   89   675     1    117.300    711.280
   673  650   662     1    117.300    711.280
   674   63    62     1    117.300    711.280
   674  664   665     1    117.300    711.280
   674  672   669     1    107.300    585.760
   674  672   676     1    107.300    585.760
   677   60    59     1    117.300    711.280
   677   92    91     1    117.300    711.280
   677   92   675     1    117.300    711.280
   677  540   539     1    117.300    711.280
   677  540   644     1    117.300    711.280
   678  547   680     1    124.000    585.760
   679  676   672     1    120.000    527.184
   680  546   699     1    124.000    585.760
   681   57    58     1    120.000    527.184
   682  681    57     1    120.000    527.184
   683   48    47     1    124.000    585.760
   683   48    49     1    117.000    711.280
   683  671   682     1    117.000    711.280
   683  685    46     1    120.060    484.926
   683  685   686     1    120.060    484.926
   688  684   687     1    107.300    585.760
   691   15    14     1    120.000    527.184
   691   15    16     1    120.000    527.184
   691   29    30     1    125.200    585.760
   691   52    51     1    107.300    585.760
   691   52   694     1    107.300    585.760
   692  315   316     1    120.000    292.880
   693  323   322     1    107.300    585.760
   693  343   692     1    120.000    527.184
   695   11    12     1    120.060    484.926
   695   55    54     1    117.000    711.280
   695   55    56     1    124.000    585.760
   695  697   699     1    117.000    711.280
   696   10     9     1    124.000    585.760
   696   10    11     1    120.000    527.184
   696  323   322     1    117.300    711.280
   696  323   693     1    134.900    711.280
   696  327   326     1    117.300    711.280
   697    9     8     1    124.000    585.760
   697  695    11     1    117.000    711.280
   697  695    55     1    124.000    585.760
   697  699     7     1    124.000    585.760
   697  699   546     1    124.000    585.760
   698  339   701     1    124.000    585.760
   700  545   546     1    120.000    527.184
   701    5     4     1    117.300    711.280
   702  543   542     1    117.300    711.280
   702  543   700     1    117.300    711.280
   705    1     2     1    117.300    711.280
   705    1   706     1    117.300    711.280
   705  271   269     1    117.300    711.280
   705  271   272     1    117.300    711.280
   705  333   508     1    117.300    711.280
   706  270   269     1    117.300    711.280
   706  270   511     1    117.300    711.280
   706  556   703     1    117.300    711.280
[ dihedrals ]
; IMPROPER DIHEDRAL ANGLES 
;  ai    aj    ak    al funct            c0            c1            c2            c3            c4            c5
    1    2    3  704        4     180.000    10.460       2
    1  705  271  333        4     180.000    10.460       2
    1  706  270  556        4     180.000    10.460       2
    2  704  701  332        4     180.000    10.460       2
    3    2    1  704        4     180.000    10.460       2
    3  703  556  518        4     180.000    10.460       2
    4    3    2  703        4     180.000    10.460       2
    5    4    3  702        4     180.000    10.460       2
    5  701  339  704        4     180.000    10.460       2
    5  701  704  339        4     180.000    10.460       2
    6    5    4  701        4     180.000    10.460       2
    6    7  699    8        4     180.000    10.460       2
    7    6    5  700        4     180.000    10.460       2
    7    8    9  698        4     180.000    10.460       2
    7  699  546  697        4     180.000    10.460       2
    8    7    6  699        4     180.000    10.460       2
    8  698  328  339        4     180.000    10.460       2
    9    8    7  698        4     180.000    10.460       2
    9  697  695  699        4     180.000    10.460       2
   10    9  697    8        4     180.000    10.460       2
   10  696  323  327        4     180.000    10.460       2
   11   10  696    9        4     180.000    10.460       2
   11   12   13  694        4     180.000    10.460       2
   12   11   10  695        4     180.000    10.460       2
   12  694   53   52        4     180.000    10.460       2
   13  693  343  323        4     180.000    10.460       2
   14   13   12  693        4     180.000    10.460       2
   14   15   16  691        4     180.000    10.460       2
   15   14   13  692        4     180.000    10.460       2
   16   15   14  691        4     180.000    10.460       2
   17   16   15  690        4     180.000    10.460       2
   19   17   18   16        4     180.000    10.460       2
   19   21   22   23        4     180.000    10.460       2
   21   19   17   20        4     180.000    10.460       2
   21   23   24  690        4     180.000    10.460       2
   23   21   19   22        4     180.000    10.460       2
   23  690   28   16        4     180.000    10.460       2
   24   23   21  690        4     180.000    10.460       2
   26   24   23   25        4     180.000    10.460       2
   26   24   25   23        4     180.000    10.460       2
   26   27   28  689        4     180.000    10.460       2
   27   28   29  690        4     180.000    10.460       2
   28   27   26  689        4     180.000    10.460       2
   28  690   23   16        4     180.000    10.460       2
   29  691   52   15        4     180.000    10.460       2
   30  688  684   51        4     180.000    10.460       2
   31   30  688   29        4     180.000    10.460       2
   31  689   41   27        4     180.000    10.460       2
   32   31   30  689        4     180.000    10.460       2
   32   33   42   34        4     180.000    10.460       2
   33   32   31  687        4     180.000    10.460       2
   34   35   37   36        4     180.000    10.460       2
   35   34   33   41        4     180.000    10.460       2
   35   37   38   39        4     180.000    10.460       2
   37   35   34   36        4     180.000    10.460       2
   37   39   40   42        4     180.000    10.460       2
   41   34   33   35        4     180.000    10.460       2
   41  689   31   27        4     180.000    10.460       2
   42   33   32   34        4     180.000    10.460       2
   43   42   33   39        4     180.000    10.460       2
   45   43   42   44        4     180.000    10.460       2
   45   43   44   42        4     180.000    10.460       2
   45  687   32  684        4     180.000    10.460       2
   46   45   43  687        4     180.000    10.460       2
   46  685  683  686        4     180.000    10.460       2
   47   46   45  685        4     180.000    10.460       2
   48   47   46  684        4     180.000    10.460       2
   49  682  681  671        4     180.000    10.460       2
   50   49  682   48        4     180.000    10.460       2
   51   50   49   53        4     180.000    10.460       2
   52   51   50  688        4     180.000    10.460       2
   52  691   29   15        4     180.000    10.460       2
   52  694   12   53        4     180.000    10.460       2
   53   50   49   51        4     180.000    10.460       2
   53  694   12   52        4     180.000    10.460       2
   54   53   50  694        4     180.000    10.460       2
   54   55   56  695        4     180.000    10.460       2
   55   54   53  681        4     180.000    10.460       2
   55   56   57  680        4     180.000    10.460       2
   55  695  697   11        4     180.000    10.460       2
   57   56   55  680        4     180.000    10.460       2
   57   58   59  679        4     180.000    10.460       2
   58   59   60  678        4     180.000    10.460       2
   58  679  670  676        4     180.000    10.460       2
   60   61   62  676        4     180.000    10.460       2
   60  677   92  540        4     180.000    10.460       2
   61   60  677   59        4     180.000    10.460       2
   61  676  672  679        4     180.000    10.460       2
   62   61   60  676        4     180.000    10.460       2
   62  675   89   92        4     180.000    10.460       2
   63   62   61  675        4     180.000    10.460       2
   63  674  672  664        4     180.000    10.460       2
   64   63   62  674        4     180.000    10.460       2
   64   63  674   62        4     180.000    10.460       2
   66   65   64  663        4     180.000    10.460       2
   67   66   65  662        4     180.000    10.460       2
   68   67  659   66        4     180.000    10.460       2
   68   69   70  657        4     180.000    10.460       2
   68  658   80  651        4     180.000    10.460       2
   69   68   67  658        4     180.000    10.460       2
   70   69   68  657        4     180.000    10.460       2
   72   70   69   71        4     180.000    10.460       2
   72   74   75  657        4     180.000    10.460       2
   74   72   70   73        4     180.000    10.460       2
   74   75  656   76        4     180.000    10.460       2
   74  657  655   69        4     180.000    10.460       2
   75   76  655   77        4     180.000    10.460       2
   76   75  656   74        4     180.000    10.460       2
   76  655   80  657        4     180.000    10.460       2
   77  654  131  141        4     180.000    10.460       2
   78   77   76  654        4     180.000    10.460       2
   78  653  130  126        4     180.000    10.460       2
   79   78   77  653        4     180.000    10.460       2
   80   79   78   81        4     180.000    10.460       2
   80  655  657   76        4     180.000    10.460       2
   80  658  651   68        4     180.000    10.460       2
   81   79   78   80        4     180.000    10.460       2
   81   82   83  651        4     180.000    10.460       2
   81  652  126  648        4     180.000    10.460       2
   82   81   79  652        4     180.000    10.460       2
   83   82   81  651        4     180.000    10.460       2
   83  649   87  650        4     180.000    10.460       2
   84   83  649   82        4     180.000    10.460       2
   84   85  647   86        4     180.000    10.460       2
   85   84   83  648        4     180.000    10.460       2
   85  647  153  128        4     180.000    10.460       2
   86   85   84  647        4     180.000    10.460       2
   86  646  645  641        4     180.000    10.460       2
   87   86   85  646        4     180.000    10.460       2
   88   87   86  649        4     180.000    10.460       2
   88   90   91  645        4     180.000    10.460       2
   89  675   62   92        4     180.000    10.460       2
   90   88   87   89        4     180.000    10.460       2
   91   93   94  644        4     180.000    10.460       2
   92   91   93   90        4     180.000    10.460       2
   93   94   95  643        4     180.000    10.460       2
   94   93   91  644        4     180.000    10.460       2
   94   95  645   96        4     180.000    10.460       2
   94  643  534  549        4     180.000    10.460       2
   95   94   93  643        4     180.000    10.460       2
   95  645   90  646        4     180.000    10.460       2
   96   95   94  645        4     180.000    10.460       2
   97   96   95  642        4     180.000    10.460       2
   97  641  153  646        4     180.000    10.460       2
   98   97   96  641        4     180.000    10.460       2
   99   98   97  155        4     180.000    10.460       2
  100   99   98  154        4     180.000    10.460       2
  100  101  102  152        4     180.000    10.460       2
  100  153  647  641        4     180.000    10.460       2
  101  100   99  153        4     180.000    10.460       2
  101  100  153   99        4     180.000    10.460       2
  102  101  100  152        4     180.000    10.460       2
  104  102  101  103        4     180.000    10.460       2
  104  102  103  101        4     180.000    10.460       2
  105  151  123  152        4     180.000    10.460       2
  106  105  104  151        4     180.000    10.460       2
  106  150  122  111        4     180.000    10.460       2
  107  106  105  150        4     180.000    10.460       2
  109  107  106  108        4     180.000    10.460       2
  111  109  107  110        4     180.000    10.460       2
  112  111  109  150        4     180.000    10.460       2
  112  149  118  121        4     180.000    10.460       2
  113  112  111  149        4     180.000    10.460       2
  115  113  112  114        4     180.000    10.460       2
  117  115  113  116        4     180.000    10.460       2
  117  115  116  113        4     180.000    10.460       2
  117  147  145  148        4     180.000    43.932       2
  117  147  148  145        4     180.000    43.932       2
  118  117  115  147        4     180.000    10.460       2
  118  149  112  121        4     180.000    10.460       2
  119  118  117  149        4     180.000    10.460       2
  120  119  118  146        4     180.000    10.460       2
  120  129  125  130        4     180.000    10.460       2
  121  120  119  129        4     180.000    10.460       2
  121  122  123  150        4     180.000    10.460       2
  121  149  118  112        4     180.000    10.460       2
  122  121  120  149        4     180.000    10.460       2
  122  123  124  151        4     180.000    10.460       2
  123  122  121  150        4     180.000    10.460       2
  123  124  127  125        4     180.000    10.460       2
  124  123  122  151        4     180.000    10.460       2
  124  127  648  128        4     180.000    10.460       2
  125  124  123  127        4     180.000    10.460       2
  126  125  124  129        4     180.000    10.460       2
  126  652  648   81        4     180.000    10.460       2
  127  648   84  652        4     180.000    10.460       2
  128  127  124  648        4     180.000    10.460       2
  128  647   85  153        4     180.000    10.460       2
  129  120  119  121        4     180.000    10.460       2
  130  131  654  132        4     180.000    10.460       2
  130  653  126   78        4     180.000    10.460       2
  131  654  141   77        4     180.000    10.460       2
  132  131  130  654        4     180.000    10.460       2
  132  146  119  145        4     180.000    10.460       2
  133  132  146  131        4     180.000    10.460       2
  134  135  136  137        4     180.000    10.460       2
  134  135  137  136        4     180.000    10.460       2
  134  141  654  656        4     180.000    10.460       2
  134  141  656  654        4     180.000    10.460       2
  135  137  139  138        4     180.000    10.460       2
  137  139  140  142        4     180.000    10.460       2
  139  137  135  138        4     180.000    10.460       2
  141  134  133  135        4     180.000    10.460       2
  141  134  135  133        4     180.000    10.460       2
  143  142  133  139        4     180.000    10.460       2
  145  143  142  144        4     180.000    10.460       2
  146  119  118  120        4     180.000    10.460       2
  147  145  143  146        4     180.000    10.460       2
  149  118  117  119        4     180.000    10.460       2
  150  106  105  107        4     180.000    10.460       2
  151  152  101  128        4     180.000    10.460       2
  152  128  127  647        4     180.000    10.460       2
  152  151  123  105        4     180.000    10.460       2
  153  641   97  646        4     180.000    10.460       2
  155   98   97   99        4     180.000    10.460       2
  155  156  157  642        4     180.000    10.460       2
  155  156  642  157        4     180.000    10.460       2
  155  640  618  613        4     180.000    10.460       2
  156  155   98  640        4     180.000    10.460       2
  157  156  155  642        4     180.000    10.460       2
  157  639  614  637        4     180.000    10.460       2
  158  157  156  639        4     180.000    10.460       2
  159  158  157  638        4     180.000    10.460       2
  160  159  158  637        4     180.000    10.460       2
  161  160  159  636        4     180.000    10.460       2
  161  635  164  590        4     180.000    10.460       2
  162  161  160  635        4     180.000    10.460       2
  163  162  161  634        4     180.000    10.460       2
  164  163  162  633        4     180.000    10.460       2
  165  164  163  635        4     180.000    10.460       2
  166  165  164  632        4     180.000    10.460       2
  166  167  168  594        4     180.000    10.460       2
  166  595  592  596        4     180.000    10.460       2
  167  166  165  595        4     180.000    10.460       2
  168  167  166  594        4     180.000    10.460       2
  168  169  170  591        4     180.000    10.460       2
  168  169  591  170        4     180.000    10.460       2
  168  592  593  595        4     180.000    10.460       2
  169  168  592  167        4     180.000    10.460       2
  170  169  168  591        4     180.000    10.460       2
  170  594  590  167        4     180.000    10.460       2
  171  170  169  594        4     180.000    10.460       2
  172  171  170  588        4     180.000    10.460       2
  173  172  171  587        4     180.000    10.460       2
  173  586  177  591        4     180.000    10.460       2
  174  173  172  586        4     180.000    10.460       2
  175  174  173  585        4     180.000    10.460       2
  176  175  174  584        4     180.000    10.460       2
  176  583  179  255        4     180.000    10.460       2
  177  176  175  583        4     180.000    10.460       2
  177  176  583  175        4     180.000    10.460       2
  178  177  176  586        4     180.000    10.460       2
  178  179  180  583        4     180.000    10.460       2
  178  582  183  591        4     180.000    10.460       2
  179  178  177  582        4     180.000    10.460       2
  179  180  181  581        4     180.000    10.460       2
  180  179  178  583        4     180.000    10.460       2
  180  181  580  182        4     180.000    10.460       2
  181  180  179  581        4     180.000    10.460       2
  181  580  251  191        4     180.000    10.460       2
  182  183  184  582        4     180.000    10.460       2
  182  188  186  189        4     180.000    10.460       2
  183  182  188  181        4     180.000    10.460       2
  183  184  186  185        4     180.000    10.460       2
  183  582  178  591        4     180.000    10.460       2
  184  183  182  582        4     180.000    10.460       2
  184  186  187  188        4     180.000    10.460       2
  186  184  185  183        4     180.000    10.460       2
  188  182  183  181        4     180.000    10.460       2
  188  186  184  187        4     180.000    10.460       2
  189  188  182  186        4     180.000    10.460       2
  189  191  192  580        4     180.000    10.460       2
  191  189  188  190        4     180.000    10.460       2
  192  191  189  580        4     180.000    10.460       2
  192  194  579  195        4     180.000    10.460       2
  194  192  191  193        4     180.000    10.460       2
  195  194  192  579        4     180.000    10.460       2
  197  195  194  196        4     180.000    10.460       2
  198  197  195  578        4     180.000    10.460       2
  200  198  197  199        4     180.000    43.932       2
  201  577  242  578        4     180.000    10.460       2
  202  201  200  577        4     180.000    10.460       2
  203  202  201  576        4     180.000    10.460       2
  203  205  206  575        4     180.000    10.460       2
  205  203  202  204        4     180.000    10.460       2
  206  205  203  575        4     180.000    10.460       2
  206  208  209  210        4     180.000    10.460       2
  208  206  205  207        4     180.000    10.460       2
  208  206  207  205        4     180.000    10.460       2
  210  208  206  209        4     180.000    10.460       2
  211  575  245  205        4     180.000    10.460       2
  212  211  575  210        4     180.000    10.460       2
  213  212  211  574        4     180.000    10.460       2
  214  572  407  573        4     180.000    10.460       2
  215  214  213  572        4     180.000    10.460       2
  215  216  217  574        4     180.000    10.460       2
  215  571  569  406        4     180.000    10.460       2
  216  215  214  571        4     180.000    10.460       2
  216  574  212  244        4     180.000    10.460       2
  217  216  215  574        4     180.000    10.460       2
  218  217  216  570        4     180.000    10.460       2
  219  218  217  569        4     180.000    10.460       2
  220  219  218  568        4     180.000    10.460       2
  221  220  219  567        4     180.000    10.460       2
  222  221  220  566        4     180.000    10.460       2
  223  222  221  568        4     180.000    10.460       2
  224  223  222  565        4     180.000    10.460       2
  224  225  226  563        4     180.000    10.460       2
  224  564  442  401        4     180.000    10.460       2
  225  224  223  564        4     180.000    10.460       2
  226  225  224  563        4     180.000    10.460       2
  226  565  230  223        4     180.000    10.460       2
  227  226  225  565        4     180.000    10.460       2
  228  227  226  562        4     180.000    10.460       2
  228  561  504  267        4     180.000    10.460       2
  229  228  227  561        4     180.000    10.460       2
  230  565  226  223        4     180.000    10.460       2
  230  566  221  234        4     180.000    10.460       2
  231  229  228  230        4     180.000    10.460       2
  232  231  229  560        4     180.000    10.460       2
  232  233  260  234        4     180.000    10.460       2
  232  261  257  262        4     180.000    10.460       2
  233  260  236  258        4     180.000    10.460       2
  234  566  221  230        4     180.000    10.460       2
  235  234  233  566        4     180.000    10.460       2
  235  236  237  260        4     180.000    10.460       2
  235  259  238  567        4     180.000    10.460       2
  236  235  259  234        4     180.000    10.460       2
  237  236  235  260        4     180.000    10.460       2
  237  252  249  253        4     180.000    10.460       2
  238  237  236  252        4     180.000    10.460       2
  239  238  237  259        4     180.000    10.460       2
  240  239  238  246        4     180.000    10.460       2
  241  240  239  243        4     180.000    10.460       2
  241  576  245  202        4     180.000    10.460       2
  242  577  201  578        4     180.000    10.460       2
  242  577  578  201        4     180.000    10.460       2
  243  240  239  241        4     180.000    10.460       2
  243  570  567  217        4     180.000    10.460       2
  244  243  240  570        4     180.000    10.460       2
  244  574  216  212        4     180.000    10.460       2
  245  244  243  574        4     180.000    10.460       2
  245  576  202  241        4     180.000    10.460       2
  245  576  241  202        4     180.000    10.460       2
  246  242  241  577        4     180.000    10.460       2
  247  246  242  239        4     180.000    10.460       2
  248  247  246  249        4     180.000    10.460       2
  248  578  197  577        4     180.000    10.460       2
  248  578  577  197        4     180.000    10.460       2
  248  579  251  194        4     180.000    10.460       2
  249  247  246  248        4     180.000    10.460       2
  249  250  251  581        4     180.000    10.460       2
  250  251  579  580        4     180.000    10.460       2
  250  581  180  253        4     180.000    10.460       2
  251  250  249  581        4     180.000    10.460       2
  251  579  248  194        4     180.000    10.460       2
  251  580  181  191        4     180.000    10.460       2
  252  249  247  250        4     180.000    10.460       2
  253  252  237  249        4     180.000    10.460       2
  254  253  252  581        4     180.000    10.460       2
  254  255  256  583        4     180.000    10.460       2
  254  258  257  260        4     180.000    10.460       2
  255  254  253  258        4     180.000    10.460       2
  255  256  584  257        4     180.000    10.460       2
  255  583  176  179        4     180.000    10.460       2
  256  257  258  261        4     180.000    10.460       2
  256  584  559  175        4     180.000    10.460       2
  257  256  584  255        4     180.000    10.460       2
  257  258  260  254        4     180.000    10.460       2
  258  254  253  255        4     180.000    10.460       2
  258  260  233  236        4     180.000    10.460       2
  259  235  236  234        4     180.000    10.460       2
  259  567  570  220        4     180.000    10.460       2
  260  233  232  234        4     180.000    10.460       2
  261  232  231  233        4     180.000    10.460       2
  261  232  233  231        4     180.000    10.460       2
  261  257  258  256        4     180.000    10.460       2
  261  262  560  263        4     180.000    10.460       2
  262  261  232  257        4     180.000    10.460       2
  262  263  264  559        4     180.000    10.460       2
  263  264  265  557        4     180.000    10.460       2
  264  263  262  559        4     180.000    10.460       2
  265  264  263  557        4     180.000    10.460       2
  265  266  268  267        4     180.000    10.460       2
  265  511  270  512        4     180.000    10.460       2
  266  265  511  264        4     180.000    10.460       2
  267  560  231  262        4     180.000    10.460       2
  268  266  265  267        4     180.000    10.460       2
  269  268  266  510        4     180.000    10.460       2
  269  271  705  272        4     180.000    10.460       2
  270  269  268  271        4     180.000    10.460       2
  270  269  271  268        4     180.000    10.460       2
  271  705    1  333        4     180.000    10.460       2
  272  271  269  705        4     180.000    10.460       2
  272  509  506  510        4     180.000    10.460       2
  273  272  271  509        4     180.000    10.460       2
  273  272  509  271        4     180.000    10.460       2
  273  508  333  337        4     180.000    10.460       2
  273  508  337  333        4     180.000    10.460       2
  274  273  272  508        4     180.000    10.460       2
  274  273  508  272        4     180.000    10.460       2
  275  274  273  507        4     180.000    10.460       2
  275  506  502  509        4     180.000    10.460       2
  276  275  274  506        4     180.000    10.460       2
  276  275  506  274        4     180.000    10.460       2
  277  276  275  505        4     180.000    10.460       2
  277  501  439  502        4     180.000    10.460       2
  278  277  276  501        4     180.000    10.460       2
  279  278  277  500        4     180.000    10.460       2
  279  280  281  498        4     180.000    10.460       2
  279  499  289  505        4     180.000    10.460       2
  280  279  278  499        4     180.000    10.460       2
  280  498  435  427        4     180.000    10.460       2
  281  280  279  498        4     180.000    10.460       2
  282  281  280  497        4     180.000    10.460       2
  283  282  281  496        4     180.000    10.460       2
  283  284  494  285        4     180.000    10.460       2
  283  495  430  369        4     180.000    10.460       2
  284  283  282  495        4     180.000    10.460       2
  284  494  368  365        4     180.000    10.460       2
  285  286  287  493        4     180.000    10.460       2
  286  285  284  497        4     180.000    10.460       2
  286  285  497  284        4     180.000    10.460       2
  286  287  492  288        4     180.000    10.460       2
  287  492  292  480        4     180.000    10.460       2
  288  289  497  499        4     180.000    10.460       2
  289  497  281  285        4     180.000    10.460       2
  289  499  279  505        4     180.000    10.460       2
  290  288  289  287        4     180.000    10.460       2
  291  490  338  336        4     180.000    10.460       2
  292  291  490  290        4     180.000    10.460       2
  293  292  291  492        4     180.000    10.460       2
  293  489  336  342        4     180.000    10.460       2
  294  293  489  292        4     180.000    10.460       2
  294  295  296  487        4     180.000    10.460       2
  295  296  486  297        4     180.000    10.460       2
  296  297  298  485        4     180.000    10.460       2
  296  486  478  483        4     180.000    10.460       2
  297  296  486  295        4     180.000    10.460       2
  298  297  296  485        4     180.000    10.460       2
  300  299  298  483        4     180.000    10.460       2
  301  300  299  352        4     180.000    10.460       2
  301  350  347  351        4     180.000    10.460       2
  301  350  351  347        4     180.000    10.460       2
  302  301  300  350        4     180.000    10.460       2
  302  301  350  300        4     180.000    10.460       2
  303  302  301  484        4     180.000    10.460       2
  303  349  344  308        4     180.000    10.460       2
  304  303  302  349        4     180.000    10.460       2
  304  347  348  350        4     180.000    10.460       2
  305  304  303  347        4     180.000    10.460       2
  307  305  304  306        4     180.000    10.460       2
  307  345  312  346        4     180.000    10.460       2
  307  345  346  312        4     180.000    10.460       2
  308  307  305  345        4     180.000    10.460       2
  308  307  345  305        4     180.000    10.460       2
  308  349  303  344        4     180.000    10.460       2
  309  308  307  349        4     180.000    10.460       2
  310  309  308  314        4     180.000    10.460       2
  310  312  345  313        4     180.000    10.460       2
  312  310  309  311        4     180.000    10.460       2
  314  309  308  310        4     180.000    10.460       2
  315  692   14  343        4     180.000    10.460       2
  317  314  309  315        4     180.000    10.460       2
  318  317  314  344        4     180.000    10.460       2
  319  318  317  343        4     180.000    10.460       2
  319  322  323  324        4     180.000    10.460       2
  320  319  318  322        4     180.000    10.460       2
  321  320  319  485        4     180.000    10.460       2
  321  344  317  349        4     180.000    10.460       2
  321  484  298  302        4     180.000    10.460       2
  321  484  302  298        4     180.000    10.460       2
  322  323  696  693        4     180.000    10.460       2
  322  324  325  326        4     180.000    10.460       2
  324  322  319  323        4     180.000    10.460       2
  324  325  487  485        4     180.000    10.460       2
  324  326  327  341        4     180.000    10.460       2
  325  324  322  326        4     180.000    10.460       2
  325  485  297  320        4     180.000    10.460       2
  325  485  320  297        4     180.000    10.460       2
  325  487  342  295        4     180.000    10.460       2
  326  327  696  328        4     180.000    10.460       2
  326  341  342  340        4     180.000    10.460       2
  327  696   10  323        4     180.000    10.460       2
  328  327  696  326        4     180.000    10.460       2
  328  698  339    8        4     180.000    10.460       2
  329  328  327  698        4     180.000    10.460       2
  330  329  328  340        4     180.000    10.460       2
  330  339  698  701        4     180.000    10.460       2
  331  330  339  329        4     180.000    10.460       2
  331  332  333  704        4     180.000    10.460       2
  332  333  705  508        4     180.000    10.460       2
  332  704  701    2        4     180.000    10.460       2
  333  332  331  704        4     180.000    10.460       2
  333  705    1  271        4     180.000    10.460       2
  334  331  332  330        4     180.000    10.460       2
  334  337  338  508        4     180.000    10.460       2
  335  334  331  337        4     180.000    10.460       2
  335  334  337  331        4     180.000    10.460       2
  335  336  489  490        4     180.000    10.460       2
  336  489  293  342        4     180.000    10.460       2
  337  508  273  333        4     180.000    10.460       2
  338  337  334  508        4     180.000    10.460       2
  338  507  491  274        4     180.000    10.460       2
  339  330  329  331        4     180.000    10.460       2
  339  701    5  704        4     180.000    10.460       2
  340  335  334  336        4     180.000    10.460       2
  341  326  324  327        4     180.000    10.460       2
  341  340  335  329        4     180.000    10.460       2
  341  342  487  489        4     180.000    10.460       2
  342  341  340  326        4     180.000    10.460       2
  342  487  325  295        4     180.000    10.460       2
  343  692   14  315        4     180.000    10.460       2
  344  321  320  484        4     180.000    10.460       2
  344  349  303  308        4     180.000    10.460       2
  345  312  313  310        4     180.000    10.460       2
  347  304  303  305        4     180.000    10.460       2
  349  344  321  317        4     180.000    10.460       2
  350  347  348  304        4     180.000    10.460       2
  352  300  299  301        4     180.000    10.460       2
  354  353  352  482        4     180.000    10.460       2
  356  354  353  355        4     180.000    10.460       2
  356  354  355  353        4     180.000    10.460       2
  357  356  354  481        4     180.000    10.460       2
  359  357  356  358        4     180.000    10.460       2
  362  360  359  361        4     180.000    10.460       2
  363  362  360  481        4     180.000    10.460       2
  363  475  479  476        4     180.000    10.460       2
  364  363  362  475        4     180.000    10.460       2
  364  363  475  362        4     180.000    10.460       2
  364  365  493  494        4     180.000    10.460       2
  365  364  366  363        4     180.000    10.460       2
  366  364  363  365        4     180.000    10.460       2
  366  367  474  368        4     180.000    10.460       2
  367  474  472  471        4     180.000    10.460       2
  368  367  366  474        4     180.000    10.460       2
  368  494  284  365        4     180.000    10.460       2
  369  368  494  367        4     180.000    10.460       2
  369  495  430  283        4     180.000    10.460       2
  370  369  368  495        4     180.000    10.460       2
  370  473  430  459        4     180.000    10.460       2
  371  370  369  473        4     180.000    10.460       2
  372  371  370  472        4     180.000    10.460       2
  373  372  371  465        4     180.000    10.460       2
  374  375  456  376        4     180.000    10.460       2
  375  374  373  459        4     180.000    10.460       2
  375  456  453  457        4     180.000    10.460       2
  376  455  431  432        4     180.000    10.460       2
  378  377  376  452        4     180.000    10.460       2
  380  381  447  382        4     180.000    10.460       2
  380  448  423  395        4     180.000    10.460       2
  382  383  384  449        4     180.000    10.460       2
  383  382  381  385        4     180.000    10.460       2
  385  382  381  383        4     180.000    10.460       2
  387  385  382  386        4     180.000    10.460       2
  388  389  446  390        4     180.000    10.460       2
  390  392  393  394        4     180.000    10.460       2
  392  390  389  391        4     180.000    10.460       2
  394  392  390  393        4     180.000    10.460       2
  394  447  381  388        4     180.000    10.460       2
  395  394  447  392        4     180.000    10.460       2
  395  448  380  423        4     180.000    10.460       2
  396  395  394  448        4     180.000    10.460       2
  396  445  443  422        4     180.000    10.460       2
  397  396  395  445        4     180.000    10.460       2
  398  397  396  444        4     180.000    10.460       2
  399  398  397  443        4     180.000    10.460       2
  400  401  402  564        4     180.000    10.460       2
  400  416  404  444        4     180.000    10.460       2
  401  400  399  416        4     180.000    10.460       2
  401  564  442  224        4     180.000    10.460       2
  402  401  400  564        4     180.000    10.460       2
  402  568  219  222        4     180.000    10.460       2
  403  402  401  568        4     180.000    10.460       2
  403  569  218  571        4     180.000    10.460       2
  404  403  402  569        4     180.000    10.460       2
  405  404  403  416        4     180.000    10.460       2
  405  406  407  571        4     180.000    10.460       2
  407  406  405  571        4     180.000    10.460       2
  407  572  214  573        4     180.000    10.460       2
  409  405  404  406        4     180.000    10.460       2
  409  405  406  404        4     180.000    10.460       2
  410  409  405  415        4     180.000    10.460       2
  411  413  415  414        4     180.000    43.932       2
  413  411  410  412        4     180.000    10.460       2
  413  411  412  410        4     180.000    10.460       2
  415  409  405  410        4     180.000    10.460       2
  416  404  403  405        4     180.000    10.460       2
  417  399  398  400        4     180.000    10.460       2
  417  442  441  564        4     180.000    10.460       2
  418  417  399  442        4     180.000    10.460       2
  419  420  433  421        4     180.000    10.460       2
  419  443  398  445        4     180.000    10.460       2
  420  419  443  418        4     180.000    10.460       2
  420  433  426  434        4     180.000    10.460       2
  421  420  419  433        4     180.000    10.460       2
  422  421  420  424        4     180.000    10.460       2
  423  422  421  445        4     180.000    10.460       2
  423  451  378  432        4     180.000    10.460       2
  424  421  420  422        4     180.000    10.460       2
  424  432  451  455        4     180.000    10.460       2
  425  424  421  432        4     180.000    10.460       2
  426  425  424  428        4     180.000    10.460       2
  426  433  420  434        4     180.000    10.460       2
  427  426  425  433        4     180.000    10.460       2
  427  496  282  429        4     180.000    10.460       2
  427  498  435  280        4     180.000    10.460       2
  428  425  424  426        4     180.000    10.460       2
  428  429  430  496        4     180.000    10.460       2
  429  430  473  495        4     180.000    10.460       2
  429  430  495  473        4     180.000    10.460       2
  430  429  428  496        4     180.000    10.460       2
  430  473  370  459        4     180.000    10.460       2
  430  495  283  369        4     180.000    10.460       2
  431  428  425  429        4     180.000    10.460       2
  431  459  374  473        4     180.000    10.460       2
  432  424  421  425        4     180.000    10.460       2
  432  451  378  423        4     180.000    10.460       2
  433  426  425  427        4     180.000    10.460       2
  435  434  433  436        4     180.000    10.460       2
  435  498  280  427        4     180.000    10.460       2
  436  418  417  419        4     180.000    10.460       2
  437  436  418  434        4     180.000    10.460       2
  438  439  440  501        4     180.000    10.460       2
  438  500  278  435        4     180.000    10.460       2
  439  440  563  562        4     180.000    10.460       2
  439  501  277  502        4     180.000    10.460       2
  440  562  503  227        4     180.000    10.460       2
  440  563  225  441        4     180.000    10.460       2
  440  563  441  225        4     180.000    10.460       2
  441  437  436  438        4     180.000    10.460       2
  441  442  417  564        4     180.000    10.460       2
  441  563  440  225        4     180.000    10.460       2
  442  441  437  563        4     180.000    10.460       2
  443  398  397  399        4     180.000    10.460       2
  444  410  409  411        4     180.000    10.460       2
  444  416  400  404        4     180.000    10.460       2
  447  381  380  382        4     180.000    10.460       2
  447  388  387  389        4     180.000    10.460       2
  447  388  389  387        4     180.000    10.460       2
  448  423  422  451        4     180.000    10.460       2
  449  379  378  380        4     180.000    10.460       2
  449  383  382  384        4     180.000    10.460       2
  450  449  379  383        4     180.000    10.460       2
  451  378  377  379        4     180.000    10.460       2
  451  432  424  455        4     180.000    10.460       2
  453  452  377  450        4     180.000    10.460       2
  453  456  457  375        4     180.000    10.460       2
  455  431  428  459        4     180.000    10.460       2
  456  375  374  376        4     180.000    10.460       2
  456  453  452  454        4     180.000    10.460       2
  456  457  458  460        4     180.000    10.460       2
  456  457  460  458        4     180.000    10.460       2
  459  374  375  373        4     180.000    10.460       2
  460  373  372  374        4     180.000    10.460       2
  461  460  373  457        4     180.000    10.460       2
  463  461  460  462        4     180.000    10.460       2
  463  461  462  460        4     180.000    10.460       2
  465  463  461  464        4     180.000    10.460       2
  465  463  464  461        4     180.000    10.460       2
  465  466  467  472        4     180.000    10.460       2
  466  465  372  463        4     180.000    10.460       2
  466  467  468  469        4     180.000    10.460       2
  467  469  470  471        4     180.000    10.460       2
  472  371  370  372        4     180.000    10.460       2
  472  466  465  467        4     180.000    10.460       2
  473  459  374  431        4     180.000    10.460       2
  474  472  371  466        4     180.000    10.460       2
  475  479  480  493        4     180.000    10.460       2
  476  475  363  479        4     180.000    10.460       2
  476  478  488  486        4     180.000    10.460       2
  477  476  475  478        4     180.000    10.460       2
  477  482  353  483        4     180.000    10.460       2
  478  476  475  477        4     180.000    10.460       2
  478  488  294  480        4     180.000    10.460       2
  479  480  488  492        4     180.000    10.460       2
  480  488  294  478        4     180.000    10.460       2
  481  477  476  482        4     180.000    10.460       2
  482  483  486  299        4     180.000    10.460       2
  484  321  320  344        4     180.000    10.460       2
  485  325  324  487        4     180.000    10.460       2
  486  478  476  488        4     180.000    10.460       2
  487  295  294  296        4     180.000    10.460       2
  488  294  293  295        4     180.000    10.460       2
  489  293  292  294        4     180.000    10.460       2
  490  336  335  489        4     180.000    10.460       2
  490  338  337  507        4     180.000    10.460       2
  491  290  288  291        4     180.000    10.460       2
  491  505  499  276        4     180.000    10.460       2
  491  507  274  338        4     180.000    10.460       2
  492  292  291  293        4     180.000    10.460       2
  492  480  479  488        4     180.000    10.460       2
  493  365  364  494        4     180.000    10.460       2
  493  479  475  480        4     180.000    10.460       2
  494  284  283  285        4     180.000    10.460       2
  494  368  367  369        4     180.000    10.460       2
  496  427  426  498        4     180.000    10.460       2
  496  429  430  428        4     180.000    10.460       2
  497  281  280  282        4     180.000    10.460       2
  497  285  286  284        4     180.000    10.460       2
  498  427  426  496        4     180.000    10.460       2
  498  435  434  500        4     180.000    10.460       2
  499  279  278  280        4     180.000    10.460       2
  500  278  277  279        4     180.000    10.460       2
  500  435  498  434        4     180.000    10.460       2
  500  438  437  439        4     180.000    10.460       2
  500  438  439  437        4     180.000    10.460       2
  501  277  276  278        4     180.000    10.460       2
  501  439  438  440        4     180.000    10.460       2
  502  506  275  509        4     180.000    10.460       2
  503  502  501  506        4     180.000    10.460       2
  503  504  561  510        4     180.000    10.460       2
  503  562  440  227        4     180.000    10.460       2
  504  503  502  562        4     180.000    10.460       2
  504  510  268  509        4     180.000    10.460       2
  504  561  228  267        4     180.000    10.460       2
  506  509  272  510        4     180.000    10.460       2
  507  491  290  505        4     180.000    10.460       2
  509  272  271  273        4     180.000    10.460       2
  509  510  268  504        4     180.000    10.460       2
  510  509  272  506        4     180.000    10.460       2
  511  512  555  513        4     180.000    10.460       2
  512  555  516  556        4     180.000    10.460       2
  513  512  555  511        4     180.000    10.460       2
  513  514  554  515        4     180.000    10.460       2
  514  513  512  557        4     180.000    10.460       2
  514  554  587  585        4     180.000    10.460       2
  516  515  514  553        4     180.000    10.460       2
  517  516  555  515        4     180.000    10.460       2
  518  517  516  552        4     180.000    10.460       2
  518  519  702  520        4     180.000    10.460       2
  518  703  556    3        4     180.000    10.460       2
  519  518  517  703        4     180.000    10.460       2
  519  702  543    4        4     180.000    10.460       2
  520  519  518  702        4     180.000    10.460       2
  521  520  519  551        4     180.000    10.460       2
  521  522  550  523        4     180.000    10.460       2
  522  521  520  552        4     180.000    10.460       2
  522  550  533  537        4     180.000    10.460       2
  523  522  521  550        4     180.000    10.460       2
  523  531  529  532        4     180.000    10.460       2
  524  523  522  531        4     180.000    10.460       2
  525  524  523  530        4     180.000    10.460       2
  525  528  636  529        4     180.000    10.460       2
  526  525  524  528        4     180.000    10.460       2
  526  525  528  524        4     180.000    10.460       2
  526  588  171  589        4     180.000    10.460       2
  527  526  525  588        4     180.000    10.460       2
  527  526  588  525        4     180.000    10.460       2
  527  553  530  515        4     180.000    10.460       2
  527  587  554  172        4     180.000    10.460       2
  528  636  160  589        4     180.000    10.460       2
  529  528  525  636        4     180.000    10.460       2
  529  531  523  532        4     180.000    10.460       2
  529  638  548  158        4     180.000    10.460       2
  530  552  521  517        4     180.000    10.460       2
  532  548  549  638        4     180.000    10.460       2
  533  532  548  531        4     180.000    10.460       2
  534  533  532  550        4     180.000    10.460       2
  534  643  549   94        4     180.000    10.460       2
  535  534  533  643        4     180.000    10.460       2
  535  644  540   93        4     180.000    10.460       2
  536  535  534  644        4     180.000    10.460       2
  537  536  538  535        4     180.000    10.460       2
  537  551  542  520        4     180.000    10.460       2
  538  536  535  537        4     180.000    10.460       2
  538  539  540  678        4     180.000    10.460       2
  538  541  542  544        4     180.000    10.460       2
  539  538  536  541        4     180.000    10.460       2
  540  539  538  678        4     180.000    10.460       2
  540  644  535   93        4     180.000    10.460       2
  541  538  536  539        4     180.000    10.460       2
  541  542  551  543        4     180.000    10.460       2
  542  543  700  702        4     180.000    10.460       2
  542  551  537  520        4     180.000    10.460       2
  543  542  551  541        4     180.000    10.460       2
  543  700  545    6        4     180.000    10.460       2
  544  541  538  542        4     180.000    10.460       2
  544  545  700  546        4     180.000    10.460       2
  544  547  678  680        4     180.000    10.460       2
  545  544  541  547        4     180.000    10.460       2
  545  700  543    6        4     180.000    10.460       2
  546  699    7  697        4     180.000    10.460       2
  547  678  539   59        4     180.000    10.460       2
  547  680  546   56        4     180.000    10.460       2
  548  549  642  643        4     180.000    10.460       2
  548  638  529  158        4     180.000    10.460       2
  549  642   96  156        4     180.000    10.460       2
  549  643  534   94        4     180.000    10.460       2
  550  533  532  534        4     180.000    10.460       2
  551  537  536  550        4     180.000    10.460       2
  552  521  520  522        4     180.000    10.460       2
  553  515  514  516        4     180.000    10.460       2
  553  530  524  552        4     180.000    10.460       2
  554  514  513  515        4     180.000    10.460       2
  554  587  527  172        4     180.000    10.460       2
  555  516  515  517        4     180.000    10.460       2
  557  558  585  559        4     180.000    10.460       2
  558  557  513  264        4     180.000    10.460       2
  558  585  554  174        4     180.000    10.460       2
  559  558  557  585        4     180.000    10.460       2
  559  584  256  175        4     180.000    10.460       2
  561  267  266  560        4     180.000    10.460       2
  561  504  503  510        4     180.000    10.460       2
  562  503  502  504        4     180.000    10.460       2
  563  440  439  562        4     180.000    10.460       2
  566  230  229  565        4     180.000    10.460       2
  566  234  233  235        4     180.000    10.460       2
  567  570  217  243        4     180.000    10.460       2
  569  403  402  404        4     180.000    10.460       2
  569  571  215  406        4     180.000    10.460       2
  570  217  216  218        4     180.000    10.460       2
  570  567  259  220        4     180.000    10.460       2
  571  569  403  218        4     180.000    10.460       2
  572  407  406  408        4     180.000    10.460       2
  574  216  215  217        4     180.000    10.460       2
  575  245  244  576        4     180.000    10.460       2
  575  245  576  244        4     180.000    10.460       2
  577  242  241  246        4     180.000    10.460       2
  578  248  247  579        4     180.000    10.460       2
  580  181  180  182        4     180.000    10.460       2
  582  183  182  184        4     180.000    10.460       2
  582  591  169  586        4     180.000    10.460       2
  583  255  254  256        4     180.000    10.460       2
  584  559  558  263        4     180.000    10.460       2
  585  554  514  587        4     180.000    10.460       2
  586  173  172  174        4     180.000    10.460       2
  587  172  171  173        4     180.000    10.460       2
  587  527  526  553        4     180.000    10.460       2
  589  588  526  171        4     180.000    10.460       2
  589  590  635  594        4     180.000    10.460       2
  589  636  160  528        4     180.000    10.460       2
  590  589  588  636        4     180.000    10.460       2
  590  635  161  164        4     180.000    10.460       2
  591  586  173  177        4     180.000    10.460       2
  592  168  169  167        4     180.000    10.460       2
  595  592  168  593        4     180.000    10.460       2
  595  596  597  632        4     180.000    10.460       2
  596  595  166  592        4     180.000    10.460       2
  596  597  598  599        4     180.000    10.460       2
  596  597  599  598        4     180.000    10.460       2
  601  599  597  600        4     180.000    10.460       2
  602  632  165  596        4     180.000    10.460       2
  603  602  632  601        4     180.000    10.460       2
  603  633  616  163        4     180.000    10.460       2
  604  603  602  633        4     180.000    10.460       2
  606  605  604  631        4     180.000    10.460       2
  606  608  609  610        4     180.000    10.460       2
  608  606  605  607        4     180.000    10.460       2
  608  606  607  605        4     180.000    10.460       2
  610  608  606  609        4     180.000    10.460       2
  610  630  628  629        4     180.000    10.460       2
  611  610  630  608        4     180.000    10.460       2
  611  631  605  616        4     180.000    10.460       2
  612  617  618  629        4     180.000    10.460       2
  613  612  617  611        4     180.000    10.460       2
  613  614  639  615        4     180.000    10.460       2
  614  613  612  640        4     180.000    10.460       2
  614  639  637  157        4     180.000    10.460       2
  615  616  633  631        4     180.000    10.460       2
  615  634  162  637        4     180.000    10.460       2
  616  615  614  634        4     180.000    10.460       2
  616  615  634  614        4     180.000    10.460       2
  616  631  611  605        4     180.000    10.460       2
  616  633  163  603        4     180.000    10.460       2
  617  612  611  613        4     180.000    10.460       2
  617  612  613  611        4     180.000    10.460       2
  617  618  619  640        4     180.000    10.460       2
  617  629  623  630        4     180.000    10.460       2
  617  629  630  623        4     180.000    10.460       2
  618  619  620  621        4     180.000    10.460       2
  618  640  155  613        4     180.000    10.460       2
  619  621  622  623        4     180.000    10.460       2
  621  623  624  629        4     180.000    10.460       2
  623  624  625  626        4     180.000    10.460       2
  624  623  621  629        4     180.000    10.460       2
  624  626  627  628        4     180.000    10.460       2
  626  624  623  625        4     180.000    10.460       2
  628  626  624  627        4     180.000    10.460       2
  629  617  612  618        4     180.000    10.460       2
  630  629  617  623        4     180.000    10.460       2
  631  611  610  612        4     180.000    10.460       2
  631  616  615  633        4     180.000    10.460       2
  632  165  164  166        4     180.000    10.460       2
  632  596  597  595        4     180.000    10.460       2
  633  163  162  164        4     180.000    10.460       2
  634  637  159  639        4     180.000    10.460       2
  635  164  163  165        4     180.000    10.460       2
  635  590  589  594        4     180.000    10.460       2
  636  589  590  588        4     180.000    10.460       2
  637  634  615  162        4     180.000    10.460       2
  637  639  614  157        4     180.000    10.460       2
  638  529  531  528        4     180.000    10.460       2
  639  614  613  615        4     180.000    10.460       2
  639  637  159  634        4     180.000    10.460       2
  640  613  612  614        4     180.000    10.460       2
  641  646  645   86        4     180.000    10.460       2
  642   96   95   97        4     180.000    10.460       2
  644  540  539  677        4     180.000    10.460       2
  645   90   88   91        4     180.000    10.460       2
  646  641   97  153        4     180.000    10.460       2
  647  153  100  641        4     180.000    10.460       2
  648   84   85   83        4     180.000    10.460       2
  649   83   82   84        4     180.000    10.460       2
  649  650  673  662        4     180.000    10.460       2
  650  662   66  651        4     180.000    10.460       2
  650  673   64   89        4     180.000    10.460       2
  651   82   81   83        4     180.000    10.460       2
  651  658   80   68        4     180.000    10.460       2
  653  126  125  652        4     180.000    10.460       2
  653  130  131  129        4     180.000    10.460       2
  654  131  130  132        4     180.000    10.460       2
  654  141  134  656        4     180.000    10.460       2
  655   80   79  658        4     180.000    10.460       2
  655  657   69   74        4     180.000    10.460       2
  658   80   79  655        4     180.000    10.460       2
  659  660  663  661        4     180.000    43.932       2
  662   66   65   67        4     180.000    10.460       2
  662  651   82  658        4     180.000    10.460       2
  663   65   64   66        4     180.000    10.460       2
  663  660  661  659        4     180.000    43.932       2
  663  664  665  674        4     180.000    10.460       2
  664  663   65  660        4     180.000    10.460       2
  665  664  663  674        4     180.000    10.460       2
  667  665  664  666        4     180.000    10.460       2
  669  667  665  668        4     180.000    10.460       2
  670  669  667  672        4     180.000    10.460       2
  670  671  683  682        4     180.000    10.460       2
  671  670  669  679        4     180.000    10.460       2
  671  683   48  685        4     180.000    10.460       2
  672  669  667  670        4     180.000    10.460       2
  672  674   63  664        4     180.000    10.460       2
  673   89   88  675        4     180.000    10.460       2
  674  672  669  676        4     180.000    10.460       2
  676  672  669  674        4     180.000    10.460       2
  676  679   58  670        4     180.000    10.460       2
  677   92   91  675        4     180.000    10.460       2
  677  540  539  644        4     180.000    10.460       2
  678   59   58   60        4     180.000    10.460       2
  678  539  538  540        4     180.000    10.460       2
  679   58   57   59        4     180.000    10.460       2
  679  676   61  672        4     180.000    10.460       2
  680  546  545  699        4     180.000    10.460       2
  680  547  678  544        4     180.000    10.460       2
  681   54   53   55        4     180.000    10.460       2
  681   57   56   58        4     180.000    10.460       2
  681   57   58   56        4     180.000    10.460       2
  682  671  670  683        4     180.000    10.460       2
  682  681   54   57        4     180.000    10.460       2
  683   48   47   49        4     180.000    10.460       2
  684   47   46   48        4     180.000    10.460       2
  684  687   32   45        4     180.000    10.460       2
  688   51   50   52        4     180.000    10.460       2
  688  684   47  687        4     180.000    10.460       2
  691   52   51  694        4     180.000    10.460       2
  692  315  314  316        4     180.000    10.460       2
  693  343  318  692        4     180.000    10.460       2
  695   11   12   10        4     180.000    10.460       2
  695   55   54   56        4     180.000    10.460       2
  695  697    9  699        4     180.000    10.460       2
  696  323  322  693        4     180.000    10.460       2
  697  695   55   11        4     180.000    10.460       2
  698  328  327  329        4     180.000    10.460       2
  699  546  545  680        4     180.000    10.460       2
  700  545  544  546        4     180.000    10.460       2
  701  339  330  698        4     180.000    10.460       2
  701  704    2  332        4     180.000    10.460       2
  702  543  542  700        4     180.000    10.460       2
  703  556  555  706        4     180.000    10.460       2
  703  556  706  555        4     180.000    10.460       2
  705    1    2  706        4     180.000    10.460       2
  705    1  706    2        4     180.000    10.460       2
  706  270  269  511        4     180.000    10.460       2
[ dihedrals ]
; PROPER DIHEDRAL ANGLES
;  ai    aj    ak    al funct            c0            c1            c2            c3            c4            c5
    1    2  704  332        3      30.334     0.000 -30.334  -0.000  -0.000   0.000
    1  705  333  332        3      30.334     0.000 -30.334  -0.000  -0.000   0.000
    1  706  556  555        3      30.334     0.000 -30.334  -0.000  -0.000   0.000
    2    1  705  333        3      30.334     0.000 -30.334  -0.000  -0.000   0.000
    2  704  332  331        3      30.334     0.000 -30.334  -0.000  -0.000   0.000
    2  704  332  333        3      30.334     0.000 -30.334  -0.000  -0.000   0.000
    2  704  701  339        3      30.334     0.000 -30.334  -0.000  -0.000   0.000
    3    2    1  705        3      30.334     0.000 -30.334  -0.000  -0.000   0.000
    3    2    1  706        3      30.334     0.000 -30.334  -0.000  -0.000   0.000
    3    2  704  332        3      30.334     0.000 -30.334  -0.000  -0.000   0.000
    3    2  704  701        3      30.334     0.000 -30.334  -0.000  -0.000   0.000
    3    4    5    6        3      30.334     0.000 -30.334  -0.000  -0.000   0.000
    3    4    5  701        3      30.334     0.000 -30.334  -0.000  -0.000   0.000
    3  703  556  555        3      30.334     0.000 -30.334  -0.000  -0.000   0.000
    3  703  556  706        3      30.334     0.000 -30.334  -0.000  -0.000   0.000
    4    3    2    1        3      30.334     0.000 -30.334  -0.000  -0.000   0.000
    4    5    6    7        3      30.334     0.000 -30.334  -0.000  -0.000   0.000
    4    5  701  339        3      30.334     0.000 -30.334  -0.000  -0.000   0.000
    4  702  519  520        3      30.334     0.000 -30.334  -0.000  -0.000   0.000
    5    4    3    2        3      30.334     0.000 -30.334  -0.000  -0.000   0.000
    5    6    7    8        3      30.334     0.000 -30.334  -0.000  -0.000   0.000
    5    6  700  545        3      30.334     0.000 -30.334  -0.000  -0.000   0.000
    5  701  339  330        3      30.334     0.000 -30.334  -0.000  -0.000   0.000
    5  701  704    2        3      30.334     0.000 -30.334  -0.000  -0.000   0.000
    5  701  704  332        3      30.334     0.000 -30.334  -0.000  -0.000   0.000
    6    5  701  339        3      30.334     0.000 -30.334  -0.000  -0.000   0.000
    6    7    8    9        3      30.334     0.000 -30.334  -0.000  -0.000   0.000
    6    7  699  697        3      30.334     0.000 -30.334  -0.000  -0.000   0.000
    6  700  545  544        3      30.334     0.000 -30.334  -0.000  -0.000   0.000
    7    6  700  545        3      30.334     0.000 -30.334  -0.000  -0.000   0.000
    7    8    9   10        3       0.628     1.883   0.000  -2.510  -0.000   0.000
    7    8    9  697        3       0.628     1.883   0.000  -2.510  -0.000   0.000
    7    8  698  328        3       0.628     1.883   0.000  -2.510  -0.000   0.000
    7    8  698  339        3       0.628     1.883   0.000  -2.510  -0.000   0.000
    7  699  546  545        3      30.334     0.000 -30.334  -0.000  -0.000   0.000
    7  699  697  695        3      14.355     0.000 -14.355  -0.000  -0.000   0.000
    8    9   10   11        3       6.234     0.000  -6.234  -0.000  -0.000   0.000
    8    9   10  696        3      30.334     0.000 -30.334  -0.000  -0.000   0.000
    8    9  697  695        3       0.628     1.883   0.000  -2.510  -0.000   0.000
    8  698  328  327        3      30.334     0.000 -30.334  -0.000  -0.000   0.000
    8  698  328  329        3       6.234     0.000  -6.234  -0.000  -0.000   0.000
    8  698  339  330        3       6.234     0.000  -6.234  -0.000  -0.000   0.000
    9    8  698  328        3       0.628     1.883   0.000  -2.510  -0.000   0.000
    9    8  698  339        3       0.628     1.883   0.000  -2.510  -0.000   0.000
    9   10  696  327        3      30.334     0.000 -30.334  -0.000  -0.000   0.000
   10  696  327  328        3      29.288     0.000 -29.288  -0.000  -0.000   0.000
   11   10  696  327        3      30.334     0.000 -30.334  -0.000  -0.000   0.000
   11   12   13   14        3      30.334     0.000 -30.334  -0.000  -0.000   0.000
   11   12  694   52        3      30.334     0.000 -30.334  -0.000  -0.000   0.000
   11   12  694   53        3      30.334     0.000 -30.334  -0.000  -0.000   0.000
   11  695   55   54        3       0.628     1.883   0.000  -2.510  -0.000   0.000
   11  695   55   56        3       0.628     1.883   0.000  -2.510  -0.000   0.000
   12   11   10    9        3      30.334     0.000 -30.334  -0.000  -0.000   0.000
   12   11   10  696        3      30.334     0.000 -30.334  -0.000  -0.000   0.000
   12   11  695   55        3      30.334     0.000 -30.334  -0.000  -0.000   0.000
   12   11  695  697        3      30.334     0.000 -30.334  -0.000  -0.000   0.000
   12   13   14   15        3      30.334     0.000 -30.334  -0.000  -0.000   0.000
   12  694   52   51        3      30.334     0.000 -30.334  -0.000  -0.000   0.000
   12  694   52  691        3      30.334     0.000 -30.334  -0.000  -0.000   0.000
   12  694   53   50        3      30.334     0.000 -30.334  -0.000  -0.000   0.000
   12  694   53   54        3      30.334     0.000 -30.334  -0.000  -0.000   0.000
   13   12   11   10        3      30.334     0.000 -30.334  -0.000  -0.000   0.000
   13   12   11  695        3      30.334     0.000 -30.334  -0.000  -0.000   0.000
   13   12  694   52        3      30.334     0.000 -30.334  -0.000  -0.000   0.000
   13   12  694   53        3      30.334     0.000 -30.334  -0.000  -0.000   0.000
   13   14   15   16        3      30.334     0.000 -30.334  -0.000  -0.000   0.000
   13   14   15  691        3      30.334     0.000 -30.334  -0.000  -0.000   0.000
   13  693  323  696        3      30.334     0.000 -30.334  -0.000  -0.000   0.000
   13  693  343  318        3      30.334     0.000 -30.334  -0.000  -0.000   0.000
   14   15   16   17        3      30.334     0.000 -30.334  -0.000  -0.000   0.000
   14   15  691   29        3      29.288     0.000 -29.288  -0.000  -0.000   0.000
   14   15  691   52        3      29.288     0.000 -29.288  -0.000  -0.000   0.000
   14  692  315  314        3      30.334     0.000 -30.334  -0.000  -0.000   0.000
   14  692  343  318        3      30.334     0.000 -30.334  -0.000  -0.000   0.000
   15   16   17   18        3      30.334     0.000 -30.334  -0.000  -0.000   0.000
   15   16   17   19        3      30.334     0.000 -30.334  -0.000  -0.000   0.000
   15   16  690   28        3      30.334     0.000 -30.334  -0.000  -0.000   0.000
   15  691   29   28        3      30.334     0.000 -30.334  -0.000  -0.000   0.000
   15  691   52   51        3      30.334     0.000 -30.334  -0.000  -0.000   0.000
   15  691   52  694        3      30.334     0.000 -30.334  -0.000  -0.000   0.000
   16   15  691   29        3      29.288     0.000 -29.288  -0.000  -0.000   0.000
   16   15  691   52        3      30.334     0.000 -30.334  -0.000  -0.000   0.000
   16   17   19   21        3      30.334     0.000 -30.334  -0.000  -0.000   0.000
   16  690   23   21        3      30.334     0.000 -30.334  -0.000  -0.000   0.000
   16  690   23   24        3      30.334     0.000 -30.334  -0.000  -0.000   0.000
   16  690   28   27        3      30.334     0.000 -30.334  -0.000  -0.000   0.000
   16  690   28   29        3      30.334     0.000 -30.334  -0.000  -0.000   0.000
   17   16   15  691        3      30.334     0.000 -30.334  -0.000  -0.000   0.000
   17   16  690   28        3      30.334     0.000 -30.334  -0.000  -0.000   0.000
   18   17   19   21        3      30.334     0.000 -30.334  -0.000  -0.000   0.000
   19   21   23   24        3      30.334     0.000 -30.334  -0.000  -0.000   0.000
   20   19   17   16        3      30.334     0.000 -30.334  -0.000  -0.000   0.000
   20   19   17   18        3      30.334     0.000 -30.334  -0.000  -0.000   0.000
   20   19   21   23        3      30.334     0.000 -30.334  -0.000  -0.000   0.000
   21   23   24   26        3      58.576     0.000 -58.576  -0.000  -0.000   0.000
   21   23  690   28        3      30.334     0.000 -30.334  -0.000  -0.000   0.000
   22   21   19   17        3      30.334     0.000 -30.334  -0.000  -0.000   0.000
   22   21   19   20        3      30.334     0.000 -30.334  -0.000  -0.000   0.000
   22   21   23   24        3      30.334     0.000 -30.334  -0.000  -0.000   0.000
   22   21   23  690        3      30.334     0.000 -30.334  -0.000  -0.000   0.000
   23   21   19   17        3      30.334     0.000 -30.334  -0.000  -0.000   0.000
   23   24   26   27        3       1.715     2.845   1.046  -5.607  -0.000   0.000
   23  690   16   15        3      30.334     0.000 -30.334  -0.000  -0.000   0.000
   23  690   16   17        3      30.334     0.000 -30.334  -0.000  -0.000   0.000
   23  690   28   27        3      30.334     0.000 -30.334  -0.000  -0.000   0.000
   23  690   28   29        3      30.334     0.000 -30.334  -0.000  -0.000   0.000
   25   24   23   21        3      30.334     0.000 -30.334  -0.000  -0.000   0.000
   25   24   23  690        3      30.334     0.000 -30.334  -0.000  -0.000   0.000
   25   24   26   27        3       1.590     4.770   0.000  -6.360  -0.000   0.000
   28   27   26   24        3      14.100     0.000  -9.079  -0.000  -5.021   0.000
   28  690   23   24        3      30.334     0.000 -30.334  -0.000  -0.000   0.000
   29   28   27   26        3      30.334     0.000 -30.334  -0.000  -0.000   0.000
   30   29   28   27        3      30.334     0.000 -30.334  -0.000  -0.000   0.000
   30   29   28  690        3      30.334     0.000 -30.334  -0.000  -0.000   0.000
   30   29  691   15        3      30.334     0.000 -30.334  -0.000  -0.000   0.000
   30   29  691   52        3      30.334     0.000 -30.334  -0.000  -0.000   0.000
   30   31   32   33        3      30.334     0.000 -30.334  -0.000  -0.000   0.000
   30   31  689   27        3      30.334     0.000 -30.334  -0.000  -0.000   0.000
   30  688   51   50        3      30.334     0.000 -30.334  -0.000  -0.000   0.000
   30  688   51   52        3      30.334     0.000 -30.334  -0.000  -0.000   0.000
   30  688  684   47        3      30.334     0.000 -30.334  -0.000  -0.000   0.000
   31   30   29   28        3      30.334     0.000 -30.334  -0.000  -0.000   0.000
   31   30   29  691        3      30.334     0.000 -30.334  -0.000  -0.000   0.000
   31   30  688   51        3      30.334     0.000 -30.334  -0.000  -0.000   0.000
   31   32  687   45        3      30.334     0.000 -30.334  -0.000  -0.000   0.000
   31  689   27   26        3      30.334     0.000 -30.334  -0.000  -0.000   0.000
   31  689   27   28        3      30.334     0.000 -30.334  -0.000  -0.000   0.000
   32   31   30   29        3      30.334     0.000 -30.334  -0.000  -0.000   0.000
   32   31  689   27        3      30.334     0.000 -30.334  -0.000  -0.000   0.000
   32  687   45   43        3      30.334     0.000 -30.334  -0.000  -0.000   0.000
   32  687   45   46        3      30.334     0.000 -30.334  -0.000  -0.000   0.000
   32  687  684   47        3      30.334     0.000 -30.334  -0.000  -0.000   0.000
   33   32  687   45        3      30.334     0.000 -30.334  -0.000  -0.000   0.000
   33   42   43   45        3      30.334     0.000 -30.334  -0.000  -0.000   0.000
   34   33   32   31        3      30.334     0.000 -30.334  -0.000  -0.000   0.000
   34   33   42   39        3      30.334     0.000 -30.334  -0.000  -0.000   0.000
   34   33   42   43        3      30.334     0.000 -30.334  -0.000  -0.000   0.000
   34   35   37   39        3      30.334     0.000 -30.334  -0.000  -0.000   0.000
   34   41  689   27        3      14.100     0.000  -9.079  -0.000  -5.021   0.000
   34   41  689   31        3      18.514     1.234  -3.012 -10.711  -6.025   0.000
   35   34   33   32        3      30.334     0.000 -30.334  -0.000  -0.000   0.000
   35   34   33   42        3      30.334     0.000 -30.334  -0.000  -0.000   0.000
   35   37   39   42        3      30.334     0.000 -30.334  -0.000  -0.000   0.000
   36   35   34   33        3      30.334     0.000 -30.334  -0.000  -0.000   0.000
   36   35   34   41        3      30.334     0.000 -30.334  -0.000  -0.000   0.000
   36   35   37   38        3      30.334     0.000 -30.334  -0.000  -0.000   0.000
   36   35   37   39        3      30.334     0.000 -30.334  -0.000  -0.000   0.000
   37   35   34   33        3      30.334     0.000 -30.334  -0.000  -0.000   0.000
   37   39   42   33        3      30.334     0.000 -30.334  -0.000  -0.000   0.000
   37   39   42   43        3      30.334     0.000 -30.334  -0.000  -0.000   0.000
   38   37   35   34        3      30.334     0.000 -30.334  -0.000  -0.000   0.000
   38   37   39   42        3      30.334     0.000 -30.334  -0.000  -0.000   0.000
   39   42   33   32        3      30.334     0.000 -30.334  -0.000  -0.000   0.000
   39   42   43   44        3      30.334     0.000 -30.334  -0.000  -0.000   0.000
   39   42   43   45        3      30.334     0.000 -30.334  -0.000  -0.000   0.000
   40   39   37   35        3      30.334     0.000 -30.334  -0.000  -0.000   0.000
   40   39   37   38        3      30.334     0.000 -30.334  -0.000  -0.000   0.000
   40   39   42   33        3      30.334     0.000 -30.334  -0.000  -0.000   0.000
   40   39   42   43        3      30.334     0.000 -30.334  -0.000  -0.000   0.000
   41   34   33   32        3      30.334     0.000 -30.334  -0.000  -0.000   0.000
   41   34   33   42        3      30.334     0.000 -30.334  -0.000  -0.000   0.000
   41   34   35   37        3      30.334     0.000 -30.334  -0.000  -0.000   0.000
   41  689   27   26        3      30.334     0.000 -30.334  -0.000  -0.000   0.000
   41  689   27   28        3      30.334     0.000 -30.334  -0.000  -0.000   0.000
   41  689   31   30        3      30.334     0.000 -30.334  -0.000  -0.000   0.000
   41  689   31   32        3      30.334     0.000 -30.334  -0.000  -0.000   0.000
   42   33   32   31        3      30.334     0.000 -30.334  -0.000  -0.000   0.000
   42   43   45   46        3      30.334     0.000 -30.334  -0.000  -0.000   0.000
   43   42   33   32        3      30.334     0.000 -30.334  -0.000  -0.000   0.000
   43   45   46   47        3      30.334     0.000 -30.334  -0.000  -0.000   0.000
   44   43   42   33        3      30.334     0.000 -30.334  -0.000  -0.000   0.000
   44   43   45   46        3      30.334     0.000 -30.334  -0.000  -0.000   0.000
   44   43   45  687        3      30.334     0.000 -30.334  -0.000  -0.000   0.000
   45   46   47   48        3       0.628     1.883   0.000  -2.510  -0.000   0.000
   45   46   47  684        3       0.628     1.883   0.000  -2.510  -0.000   0.000
   45   46  685  683        3      30.334     0.000 -30.334  -0.000  -0.000   0.000
   46   47   48  683        3       0.628     1.883   0.000  -2.510  -0.000   0.000
   46  685  683  671        3      30.334     0.000 -30.334  -0.000  -0.000   0.000
   47   48   49   50        3      14.355     0.000 -14.355  -0.000  -0.000   0.000
   47   48  683  671        3       0.628     1.883   0.000  -2.510  -0.000   0.000
   47  684  688   51        3      30.334     0.000 -30.334  -0.000  -0.000   0.000
   48   49   50   53        3      30.334     0.000 -30.334  -0.000  -0.000   0.000
   48  683  671  670        3       0.628     1.883   0.000  -2.510  -0.000   0.000
   49   48   47   46        3       0.628     1.883   0.000  -2.510  -0.000   0.000
   49   48   47  684        3       0.628     1.883   0.000  -2.510  -0.000   0.000
   49   48  683  671        3       0.628     1.883   0.000  -2.510  -0.000   0.000
   49   50   53   54        3      30.334     0.000 -30.334  -0.000  -0.000   0.000
   49  682  671  670        3      14.355     0.000 -14.355  -0.000  -0.000   0.000
   49  682  681   54        3      30.334     0.000 -30.334  -0.000  -0.000   0.000
   50   53   54   55        3      30.334     0.000 -30.334  -0.000  -0.000   0.000
   51   50   49   48        3      30.334     0.000 -30.334  -0.000  -0.000   0.000
   51   50   49  682        3      30.334     0.000 -30.334  -0.000  -0.000   0.000
   51   50   53   54        3      30.334     0.000 -30.334  -0.000  -0.000   0.000
   51   52  691   29        3       9.079     0.000  -9.079  -0.000  -0.000   0.000
   51  688   30   29        3      30.334     0.000 -30.334  -0.000  -0.000   0.000
   52   51   50   49        3       6.234     0.000  -6.234  -0.000  -0.000   0.000
   52   51   50   53        3       6.234     0.000  -6.234  -0.000  -0.000   0.000
   52  691   29   28        3      30.334     0.000 -30.334  -0.000  -0.000   0.000
   52  694   53   54        3       6.234     0.000  -6.234  -0.000  -0.000   0.000
   53   54   55  695        3      14.355     0.000 -14.355  -0.000  -0.000   0.000
   54   55  695  697        3       0.628     1.883   0.000  -2.510  -0.000   0.000
   55  695   11   10        3       6.234     0.000  -6.234  -0.000  -0.000   0.000
   55  695  697    9        3       0.628     1.883   0.000  -2.510  -0.000   0.000
   56   55   54   53        3      14.355     0.000 -14.355  -0.000  -0.000   0.000
   56   55  695  697        3       0.628     1.883   0.000  -2.510  -0.000   0.000
   56  680  546  545        3      14.355     0.000 -14.355  -0.000  -0.000   0.000
   56  680  547  544        3       6.234     0.000  -6.234  -0.000  -0.000   0.000
   57   56   55  695        3       0.628     1.883   0.000  -2.510  -0.000   0.000
   57   58   59   60        3      30.334     0.000 -30.334  -0.000  -0.000   0.000
   57   58  679  670        3      30.334     0.000 -30.334  -0.000  -0.000   0.000
   57   58  679  676        3      30.334     0.000 -30.334  -0.000  -0.000   0.000
   57  681   54   53        3      30.334     0.000 -30.334  -0.000  -0.000   0.000
   57  681   54   55        3      30.334     0.000 -30.334  -0.000  -0.000   0.000
   57  681  682   49        3      30.334     0.000 -30.334  -0.000  -0.000   0.000
   57  681  682  671        3      30.334     0.000 -30.334  -0.000  -0.000   0.000
   58   57   56   55        3      30.334     0.000 -30.334  -0.000  -0.000   0.000
   58   57  681   54        3      30.334     0.000 -30.334  -0.000  -0.000   0.000
   58   57  681  682        3      30.334     0.000 -30.334  -0.000  -0.000   0.000
   58   59   60   61        3      30.334     0.000 -30.334  -0.000  -0.000   0.000
   58   59   60  677        3      30.334     0.000 -30.334  -0.000  -0.000   0.000
   58  679  670  671        3      30.334     0.000 -30.334  -0.000  -0.000   0.000
   58  679  676   61        3      30.334     0.000 -30.334  -0.000  -0.000   0.000
   59   58   57   56        3      30.334     0.000 -30.334  -0.000  -0.000   0.000
   59   58   57  681        3      30.334     0.000 -30.334  -0.000  -0.000   0.000
   59   58  679  670        3      30.334     0.000 -30.334  -0.000  -0.000   0.000
   59   60   61   62        3      30.334     0.000 -30.334  -0.000  -0.000   0.000
   59   60  677   92        3      30.334     0.000 -30.334  -0.000  -0.000   0.000
   59  678  539  538        3      30.334     0.000 -30.334  -0.000  -0.000   0.000
   59  678  539  540        3      30.334     0.000 -30.334  -0.000  -0.000   0.000
   59  678  547  544        3      30.334     0.000 -30.334  -0.000  -0.000   0.000
   60   61   62   63        3      30.334     0.000 -30.334  -0.000  -0.000   0.000
   61   62   63   64        3      30.334     0.000 -30.334  -0.000  -0.000   0.000
   61   62   63  674        3      30.334     0.000 -30.334  -0.000  -0.000   0.000
   61  676  672  674        3      30.334     0.000 -30.334  -0.000  -0.000   0.000
   62   63   64   65        3      30.334     0.000 -30.334  -0.000  -0.000   0.000
   63   64   65   66        3      30.334     0.000 -30.334  -0.000  -0.000   0.000
   64   65   66   67        3      30.334     0.000 -30.334  -0.000  -0.000   0.000
   64   65  663  660        3      30.334     0.000 -30.334  -0.000  -0.000   0.000
   65   66   67   68        3      30.334     0.000 -30.334  -0.000  -0.000   0.000
   65   66   67  659        3      30.334     0.000 -30.334  -0.000  -0.000   0.000
   65  663  660  659        3      29.288     0.000 -29.288  -0.000  -0.000   0.000
   65  663  660  661        3      29.288     0.000 -29.288  -0.000  -0.000   0.000
   66   65  663  660        3      30.334     0.000 -30.334  -0.000  -0.000   0.000
   66   67   68   69        3      30.334     0.000 -30.334  -0.000  -0.000   0.000
   66   67   68  658        3      30.334     0.000 -30.334  -0.000  -0.000   0.000
   66   67  659  660        3      10.460     0.000 -10.460  -0.000  -0.000   0.000
   66  662  651   82        3      30.334     0.000 -30.334  -0.000  -0.000   0.000
   67   68   69   70        3      30.334     0.000 -30.334  -0.000  -0.000   0.000
   68   69   70   72        3      30.334     0.000 -30.334  -0.000  -0.000   0.000
   68   69  657   74        3      30.334     0.000 -30.334  -0.000  -0.000   0.000
   69   70   72   74        3      30.334     0.000 -30.334  -0.000  -0.000   0.000
   71   70   69   68        3      30.334     0.000 -30.334  -0.000  -0.000   0.000
   71   70   69  657        3      30.334     0.000 -30.334  -0.000  -0.000   0.000
   71   70   72   74        3      30.334     0.000 -30.334  -0.000  -0.000   0.000
   72   70   69  657        3      30.334     0.000 -30.334  -0.000  -0.000   0.000
   73   72   70   69        3      30.334     0.000 -30.334  -0.000  -0.000   0.000
   73   72   70   71        3      30.334     0.000 -30.334  -0.000  -0.000   0.000
   73   72   74   75        3      30.334     0.000 -30.334  -0.000  -0.000   0.000
   73   72   74  657        3      30.334     0.000 -30.334  -0.000  -0.000   0.000
   74  657  655   76        3       6.234     0.000  -6.234  -0.000  -0.000   0.000
   75   74   72   70        3      30.334     0.000 -30.334  -0.000  -0.000   0.000
   75   74  657   69        3       0.628     1.883   0.000  -2.510  -0.000   0.000
   76   75   74   72        3      30.334     0.000 -30.334  -0.000  -0.000   0.000
   76  655  657   69        3      30.334     0.000 -30.334  -0.000  -0.000   0.000
   77   76   75   74        3      30.334     0.000 -30.334  -0.000  -0.000   0.000
   77   76   75  656        3       9.079     0.000  -9.079  -0.000  -0.000   0.000
   77   76  655   80        3      30.334     0.000 -30.334  -0.000  -0.000   0.000
   77   78   79   80        3      30.334     0.000 -30.334  -0.000  -0.000   0.000
   77  654  141  656        3      30.334     0.000 -30.334  -0.000  -0.000   0.000
   78   77   76   75        3      30.334     0.000 -30.334  -0.000  -0.000   0.000
   78   77   76  655        3      30.334     0.000 -30.334  -0.000  -0.000   0.000
   78   79   80  655        3      30.334     0.000 -30.334  -0.000  -0.000   0.000
   79   78   77   76        3      30.334     0.000 -30.334  -0.000  -0.000   0.000
   79   80  655   76        3      30.334     0.000 -30.334  -0.000  -0.000   0.000
   79   80  658   68        3      30.334     0.000 -30.334  -0.000  -0.000   0.000
   80  655   76   75        3      30.334     0.000 -30.334  -0.000  -0.000   0.000
   80  655  657   69        3      30.334     0.000 -30.334  -0.000  -0.000   0.000
   80  655  657   74        3      30.334     0.000 -30.334  -0.000  -0.000   0.000
   80  658   68   67        3      30.334     0.000 -30.334  -0.000  -0.000   0.000
   80  658   68   69        3      30.334     0.000 -30.334  -0.000  -0.000   0.000
   81   79   78   77        3      30.334     0.000 -30.334  -0.000  -0.000   0.000
   81   79   78  653        3      30.334     0.000 -30.334  -0.000  -0.000   0.000
   81   79   80  655        3      30.334     0.000 -30.334  -0.000  -0.000   0.000
   81   79   80  658        3      30.334     0.000 -30.334  -0.000  -0.000   0.000
   81   82   83   84        3      30.334     0.000 -30.334  -0.000  -0.000   0.000
   81   82   83  649        3      30.334     0.000 -30.334  -0.000  -0.000   0.000
   81  652  126  125        3      30.334     0.000 -30.334  -0.000  -0.000   0.000
   81  652  126  653        3      30.334     0.000 -30.334  -0.000  -0.000   0.000
   81  652  648   84        3      30.334     0.000 -30.334  -0.000  -0.000   0.000
   81  652  648  127        3      30.334     0.000 -30.334  -0.000  -0.000   0.000
   82   81   79   78        3      30.334     0.000 -30.334  -0.000  -0.000   0.000
   82   81   79   80        3      30.334     0.000 -30.334  -0.000  -0.000   0.000
   82   81  652  126        3      30.334     0.000 -30.334  -0.000  -0.000   0.000
   82   81  652  648        3      30.334     0.000 -30.334  -0.000  -0.000   0.000
   82   83   84   85        3      30.334     0.000 -30.334  -0.000  -0.000   0.000
   82   83  649   87        3      30.334     0.000 -30.334  -0.000  -0.000   0.000
   82   83  649  650        3      30.334     0.000 -30.334  -0.000  -0.000   0.000
   82  651  658   68        3      30.334     0.000 -30.334  -0.000  -0.000   0.000
   82  651  658   80        3      30.334     0.000 -30.334  -0.000  -0.000   0.000
   82  651  662  650        3      30.334     0.000 -30.334  -0.000  -0.000   0.000
   83   82   81   79        3      30.334     0.000 -30.334  -0.000  -0.000   0.000
   83   84   85   86        3      30.334     0.000 -30.334  -0.000  -0.000   0.000
   83  649   87   86        3      30.334     0.000 -30.334  -0.000  -0.000   0.000
   83  649   87   88        3      30.334     0.000 -30.334  -0.000  -0.000   0.000
   84   83  649   87        3      30.334     0.000 -30.334  -0.000  -0.000   0.000
   84  648  127  124        3      30.334     0.000 -30.334  -0.000  -0.000   0.000
   85   84  648  127        3      30.334     0.000 -30.334  -0.000  -0.000   0.000
   85  647  128  127        3      30.334     0.000 -30.334  -0.000  -0.000   0.000
   86   85   84  648        3      30.334     0.000 -30.334  -0.000  -0.000   0.000
   86   85  647  153        3      30.334     0.000 -30.334  -0.000  -0.000   0.000
   86   87   88   90        3      30.334     0.000 -30.334  -0.000  -0.000   0.000
   86  646  645   90        3      30.334     0.000 -30.334  -0.000  -0.000   0.000
   86  646  645   95        3      30.334     0.000 -30.334  -0.000  -0.000   0.000
   87   86   85   84        3      30.334     0.000 -30.334  -0.000  -0.000   0.000
   87   86   85  647        3      30.334     0.000 -30.334  -0.000  -0.000   0.000
   87   86  646  645        3      30.334     0.000 -30.334  -0.000  -0.000   0.000
   87   88   90   91        3      30.334     0.000 -30.334  -0.000  -0.000   0.000
   87   88   90  645        3      30.334     0.000 -30.334  -0.000  -0.000   0.000
   88   87   86   85        3      30.334     0.000 -30.334  -0.000  -0.000   0.000
   88   89  673   64        3      30.334     0.000 -30.334  -0.000  -0.000   0.000
   88   89  675   62        3      30.334     0.000 -30.334  -0.000  -0.000   0.000
   88   89  675   92        3      30.334     0.000 -30.334  -0.000  -0.000   0.000
   88   90   91   92        3      30.334     0.000 -30.334  -0.000  -0.000   0.000
   88   90   91   93        3      30.334     0.000 -30.334  -0.000  -0.000   0.000
   88   90  645   95        3      30.334     0.000 -30.334  -0.000  -0.000   0.000
   89   88   87   86        3      30.334     0.000 -30.334  -0.000  -0.000   0.000
   89   88   87  649        3      30.334     0.000 -30.334  -0.000  -0.000   0.000
   89   88   90   91        3      30.334     0.000 -30.334  -0.000  -0.000   0.000
   89   88   90  645        3      30.334     0.000 -30.334  -0.000  -0.000   0.000
   89  673   64   63        3      30.334     0.000 -30.334  -0.000  -0.000   0.000
   89  673   64   65        3      30.334     0.000 -30.334  -0.000  -0.000   0.000
   89  673  650  649        3      30.334     0.000 -30.334  -0.000  -0.000   0.000
   89  675   62   61        3      30.334     0.000 -30.334  -0.000  -0.000   0.000
   89  675   62   63        3      30.334     0.000 -30.334  -0.000  -0.000   0.000
   89  675   92   91        3      30.334     0.000 -30.334  -0.000  -0.000   0.000
   89  675   92  677        3      30.334     0.000 -30.334  -0.000  -0.000   0.000
   90   91   92  677        3      30.334     0.000 -30.334  -0.000  -0.000   0.000
   90   91   93   94        3      30.334     0.000 -30.334  -0.000  -0.000   0.000
   90  645   95   94        3      30.334     0.000 -30.334  -0.000  -0.000   0.000
   91   92  675   62        3      30.334     0.000 -30.334  -0.000  -0.000   0.000
   91   92  677   60        3      30.334     0.000 -30.334  -0.000  -0.000   0.000
   92  675   62   61        3      30.334     0.000 -30.334  -0.000  -0.000   0.000
   92  675   62   63        3      30.334     0.000 -30.334  -0.000  -0.000   0.000
   92  677   60   61        3      30.334     0.000 -30.334  -0.000  -0.000   0.000
   93   91   92  677        3      30.334     0.000 -30.334  -0.000  -0.000   0.000
   93  644  540  677        3      30.334     0.000 -30.334  -0.000  -0.000   0.000
   94   93   91   92        3      30.334     0.000 -30.334  -0.000  -0.000   0.000
   95   94   93   91        3      30.334     0.000 -30.334  -0.000  -0.000   0.000
   95  645   90   91        3      30.334     0.000 -30.334  -0.000  -0.000   0.000
   96   95   94   93        3      30.334     0.000 -30.334  -0.000  -0.000   0.000
   96   95  645   90        3      30.334     0.000 -30.334  -0.000  -0.000   0.000
   96   97   98   99        3      30.334     0.000 -30.334  -0.000  -0.000   0.000
   96  642  549  548        3      30.334     0.000 -30.334  -0.000  -0.000   0.000
   97   96   95   94        3      30.334     0.000 -30.334  -0.000  -0.000   0.000
   97   96   95  645        3      30.334     0.000 -30.334  -0.000  -0.000   0.000
   97   96  642  549        3      30.334     0.000 -30.334  -0.000  -0.000   0.000
   97   98   99  100        3      30.334     0.000 -30.334  -0.000  -0.000   0.000
   97  641  153  100        3      30.334     0.000 -30.334  -0.000  -0.000   0.000
   97  641  153  647        3      30.334     0.000 -30.334  -0.000  -0.000   0.000
   97  641  646   86        3      30.334     0.000 -30.334  -0.000  -0.000   0.000
   97  641  646  645        3      30.334     0.000 -30.334  -0.000  -0.000   0.000
   98   97   96   95        3      30.334     0.000 -30.334  -0.000  -0.000   0.000
   98   97   96  642        3      30.334     0.000 -30.334  -0.000  -0.000   0.000
   98   99  100  101        3      30.334     0.000 -30.334  -0.000  -0.000   0.000
   98  155  156  157        3      30.334     0.000 -30.334  -0.000  -0.000   0.000
   98  155  156  642        3      30.334     0.000 -30.334  -0.000  -0.000   0.000
   98  155  640  618        3       6.234     0.000  -6.234  -0.000  -0.000   0.000
   99  100  153  647        3      30.334     0.000 -30.334  -0.000  -0.000   0.000
  100  153  647   85        3      30.334     0.000 -30.334  -0.000  -0.000   0.000
  101  100  153  647        3      30.334     0.000 -30.334  -0.000  -0.000   0.000
  101  152  128  127        3      30.334     0.000 -30.334  -0.000  -0.000   0.000
  101  152  128  647        3      30.334     0.000 -30.334  -0.000  -0.000   0.000
  101  152  151  123        3      30.334     0.000 -30.334  -0.000  -0.000   0.000
  102  101  100   99        3      30.334     0.000 -30.334  -0.000  -0.000   0.000
  102  104  105  106        3      14.100     0.000  -9.079  -0.000  -5.021   0.000
  103  102  101  100        3      30.334     0.000 -30.334  -0.000  -0.000   0.000
  104  102  101  100        3      58.576     0.000 -58.576  -0.000  -0.000   0.000
  104  105  106  107        3      30.334     0.000 -30.334  -0.000  -0.000   0.000
  104  105  151  123        3      30.334     0.000 -30.334  -0.000  -0.000   0.000
  105  104  102  101        3       1.715     2.845   1.046  -5.607  -0.000   0.000
  105  104  102  103        3       1.590     4.770   0.000  -6.360  -0.000   0.000
  105  106  107  109        3      30.334     0.000 -30.334  -0.000  -0.000   0.000
  105  106  150  111        3      30.334     0.000 -30.334  -0.000  -0.000   0.000
  105  106  150  122        3      30.334     0.000 -30.334  -0.000  -0.000   0.000
  105  151  123  122        3      30.334     0.000 -30.334  -0.000  -0.000   0.000
  105  151  123  124        3      30.334     0.000 -30.334  -0.000  -0.000   0.000
  105  151  152  101        3      30.334     0.000 -30.334  -0.000  -0.000   0.000
  106  105  151  123        3      30.334     0.000 -30.334  -0.000  -0.000   0.000
  106  107  109  111        3      30.334     0.000 -30.334  -0.000  -0.000   0.000
  106  150  111  112        3      30.334     0.000 -30.334  -0.000  -0.000   0.000
  106  150  122  121        3      30.334     0.000 -30.334  -0.000  -0.000   0.000
  106  150  122  123        3      30.334     0.000 -30.334  -0.000  -0.000   0.000
  107  106  150  122        3      30.334     0.000 -30.334  -0.000  -0.000   0.000
  107  109  111  112        3      30.334     0.000 -30.334  -0.000  -0.000   0.000
  108  107  106  105        3      30.334     0.000 -30.334  -0.000  -0.000   0.000
  108  107  106  150        3      30.334     0.000 -30.334  -0.000  -0.000   0.000
  108  107  109  111        3      30.334     0.000 -30.334  -0.000  -0.000   0.000
  109  111  112  113        3      30.334     0.000 -30.334  -0.000  -0.000   0.000
  109  111  150  106        3      30.334     0.000 -30.334  -0.000  -0.000   0.000
  109  111  150  122        3      30.334     0.000 -30.334  -0.000  -0.000   0.000
  110  109  107  106        3      30.334     0.000 -30.334  -0.000  -0.000   0.000
  110  109  107  108        3      30.334     0.000 -30.334  -0.000  -0.000   0.000
  110  109  111  112        3      30.334     0.000 -30.334  -0.000  -0.000   0.000
  110  109  111  150        3      30.334     0.000 -30.334  -0.000  -0.000   0.000
  111  112  113  115        3      29.288     0.000 -29.288  -0.000  -0.000   0.000
  111  112  149  118        3      30.334     0.000 -30.334  -0.000  -0.000   0.000
  111  112  149  121        3      30.334     0.000 -30.334  -0.000  -0.000   0.000
  111  150  122  121        3      30.334     0.000 -30.334  -0.000  -0.000   0.000
  111  150  122  123        3      30.334     0.000 -30.334  -0.000  -0.000   0.000
  112  111  150  122        3      30.334     0.000 -30.334  -0.000  -0.000   0.000
  112  113  115  117        3      30.334     0.000 -30.334  -0.000  -0.000   0.000
  112  149  118  117        3      30.334     0.000 -30.334  -0.000  -0.000   0.000
  112  149  118  119        3      30.334     0.000 -30.334  -0.000  -0.000   0.000
  112  149  121  120        3      30.334     0.000 -30.334  -0.000  -0.000   0.000
  112  149  121  122        3      30.334     0.000 -30.334  -0.000  -0.000   0.000
  113  112  149  118        3      30.334     0.000 -30.334  -0.000  -0.000   0.000
  113  112  149  121        3      30.334     0.000 -30.334  -0.000  -0.000   0.000
  113  115  117  118        3      30.334     0.000 -30.334  -0.000  -0.000   0.000
  114  113  112  111        3      30.334     0.000 -30.334  -0.000  -0.000   0.000
  114  113  112  149        3      30.334     0.000 -30.334  -0.000  -0.000   0.000
  114  113  115  117        3      30.334     0.000 -30.334  -0.000  -0.000   0.000
  115  117  118  119        3      30.334     0.000 -30.334  -0.000  -0.000   0.000
  116  115  113  112        3       0.000     0.000   0.000  -0.000  -0.000   0.000
  116  115  113  114        3      30.334     0.000 -30.334  -0.000  -0.000   0.000
  116  115  117  118        3      30.334     0.000 -30.334  -0.000  -0.000   0.000
  117  118  119  146        3      30.334     0.000 -30.334  -0.000  -0.000   0.000
  117  118  149  121        3      30.334     0.000 -30.334  -0.000  -0.000   0.000
  117  147  145  146        3      30.334     0.000 -30.334  -0.000  -0.000   0.000
  118  119  120  121        3      30.334     0.000 -30.334  -0.000  -0.000   0.000
  118  119  146  132        3      30.334     0.000 -30.334  -0.000  -0.000   0.000
  118  149  121  122        3      30.334     0.000 -30.334  -0.000  -0.000   0.000
  119  120  121  122        3      30.334     0.000 -30.334  -0.000  -0.000   0.000
  119  146  132  133        3      30.334     0.000 -30.334  -0.000  -0.000   0.000
  120  119  118  117        3      30.334     0.000 -30.334  -0.000  -0.000   0.000
  120  119  146  132        3      30.334     0.000 -30.334  -0.000  -0.000   0.000
  120  121  122  123        3      30.334     0.000 -30.334  -0.000  -0.000   0.000
  120  121  149  118        3      30.334     0.000 -30.334  -0.000  -0.000   0.000
  120  129  125  124        3      30.334     0.000 -30.334  -0.000  -0.000   0.000
  120  129  125  126        3       6.234     0.000  -6.234  -0.000  -0.000   0.000
  120  129  130  653        3       6.234     0.000  -6.234  -0.000  -0.000   0.000
  124  123  122  121        3      30.334     0.000 -30.334  -0.000  -0.000   0.000
  125  124  123  122        3      30.334     0.000 -30.334  -0.000  -0.000   0.000
  125  124  127  648        3      30.334     0.000 -30.334  -0.000  -0.000   0.000
  125  126  652  648        3      30.334     0.000 -30.334  -0.000  -0.000   0.000
  125  126  653   78        3      30.334     0.000 -30.334  -0.000  -0.000   0.000
  125  126  653  130        3      30.334     0.000 -30.334  -0.000  -0.000   0.000
  125  129  120  119        3       0.628     1.883   0.000  -2.510  -0.000   0.000
  125  129  120  121        3       0.628     1.883   0.000  -2.510  -0.000   0.000
  126  125  124  123        3      30.334     0.000 -30.334  -0.000  -0.000   0.000
  126  125  124  127        3      30.334     0.000 -30.334  -0.000  -0.000   0.000
  126  652   81   79        3      30.334     0.000 -30.334  -0.000  -0.000   0.000
  126  652  648   84        3      30.334     0.000 -30.334  -0.000  -0.000   0.000
  126  652  648  127        3      30.334     0.000 -30.334  -0.000  -0.000   0.000
  126  653   78   77        3      30.334     0.000 -30.334  -0.000  -0.000   0.000
  126  653   78   79        3      30.334     0.000 -30.334  -0.000  -0.000   0.000
  127  124  123  122        3      30.334     0.000 -30.334  -0.000  -0.000   0.000
  127  648   84   83        3      30.334     0.000 -30.334  -0.000  -0.000   0.000
  128  127  124  123        3      30.334     0.000 -30.334  -0.000  -0.000   0.000
  128  127  124  125        3      30.334     0.000 -30.334  -0.000  -0.000   0.000
  128  127  648   84        3      30.334     0.000 -30.334  -0.000  -0.000   0.000
  128  152  101  100        3      30.334     0.000 -30.334  -0.000  -0.000   0.000
  128  152  101  102        3      30.334     0.000 -30.334  -0.000  -0.000   0.000
  128  152  151  105        3      30.334     0.000 -30.334  -0.000  -0.000   0.000
  128  152  151  123        3      30.334     0.000 -30.334  -0.000  -0.000   0.000
  128  647   85   84        3      30.334     0.000 -30.334  -0.000  -0.000   0.000
  128  647   85   86        3      30.334     0.000 -30.334  -0.000  -0.000   0.000
  128  647  153  100        3      30.334     0.000 -30.334  -0.000  -0.000   0.000
  128  647  153  641        3      30.334     0.000 -30.334  -0.000  -0.000   0.000
  129  120  119  118        3       6.234     0.000  -6.234  -0.000  -0.000   0.000
  129  120  119  146        3      30.334     0.000 -30.334  -0.000  -0.000   0.000
  129  120  121  122        3      30.334     0.000 -30.334  -0.000  -0.000   0.000
  129  125  124  123        3      30.334     0.000 -30.334  -0.000  -0.000   0.000
  129  125  124  127        3      30.334     0.000 -30.334  -0.000  -0.000   0.000
  129  125  126  652        3      30.334     0.000 -30.334  -0.000  -0.000   0.000
  129  130  131  132        3      30.334     0.000 -30.334  -0.000  -0.000   0.000
  129  130  131  654        3      30.334     0.000 -30.334  -0.000  -0.000   0.000
  129  130  653   78        3      30.334     0.000 -30.334  -0.000  -0.000   0.000
  129  130  653  126        3      30.334     0.000 -30.334  -0.000  -0.000   0.000
  130  129  120  119        3       0.628     1.883   0.000  -2.510  -0.000   0.000
  130  129  120  121        3       0.628     1.883   0.000  -2.510  -0.000   0.000
  130  129  125  124        3      30.334     0.000 -30.334  -0.000  -0.000   0.000
  130  131  132  133        3      30.334     0.000 -30.334  -0.000  -0.000   0.000
  130  131  132  146        3      30.334     0.000 -30.334  -0.000  -0.000   0.000
  130  131  654   77        3      30.334     0.000 -30.334  -0.000  -0.000   0.000
  130  653   78   77        3      30.334     0.000 -30.334  -0.000  -0.000   0.000
  130  653   78   79        3      30.334     0.000 -30.334  -0.000  -0.000   0.000
  131  130  129  120        3      30.334     0.000 -30.334  -0.000  -0.000   0.000
  131  130  129  125        3      30.334     0.000 -30.334  -0.000  -0.000   0.000
  131  130  653   78        3      30.334     0.000 -30.334  -0.000  -0.000   0.000
  131  130  653  126        3      30.334     0.000 -30.334  -0.000  -0.000   0.000
  131  132  133  134        3      30.334     0.000 -30.334  -0.000  -0.000   0.000
  131  132  146  119        3      30.334     0.000 -30.334  -0.000  -0.000   0.000
  131  654   77   76        3      30.334     0.000 -30.334  -0.000  -0.000   0.000
  131  654   77   78        3      30.334     0.000 -30.334  -0.000  -0.000   0.000
  131  654  141  656        3      30.334     0.000 -30.334  -0.000  -0.000   0.000
  132  131  654   77        3      30.334     0.000 -30.334  -0.000  -0.000   0.000
  132  133  134  135        3      30.334     0.000 -30.334  -0.000  -0.000   0.000
  133  132  131  654        3      30.334     0.000 -30.334  -0.000  -0.000   0.000
  133  134  141  654        3      29.288     0.000 -29.288  -0.000  -0.000   0.000
  133  134  141  656        3      30.334     0.000 -30.334  -0.000  -0.000   0.000
  134  141  654   77        3      30.334     0.000 -30.334  -0.000  -0.000   0.000
  134  141  654  131        3      30.334     0.000 -30.334  -0.000  -0.000   0.000
  134  141  656   75        3      14.100     0.000  -9.079  -0.000  -5.021   0.000
  135  134  141  654        3      30.334     0.000 -30.334  -0.000  -0.000   0.000
  135  134  141  656        3      30.334     0.000 -30.334  -0.000  -0.000   0.000
  136  135  134  133        3      30.334     0.000 -30.334  -0.000  -0.000   0.000
  136  135  134  141        3      30.334     0.000 -30.334  -0.000  -0.000   0.000
  136  135  137  138        3      30.334     0.000 -30.334  -0.000  -0.000   0.000
  136  135  137  139        3      30.334     0.000 -30.334  -0.000  -0.000   0.000
  137  135  134  133        3      29.288     0.000 -29.288  -0.000  -0.000   0.000
  137  135  134  141        3      30.334     0.000 -30.334  -0.000  -0.000   0.000
  137  139  142  133        3      29.288     0.000 -29.288  -0.000  -0.000   0.000
  137  139  142  143        3      30.334     0.000 -30.334  -0.000  -0.000   0.000
  138  137  135  134        3      30.334     0.000 -30.334  -0.000  -0.000   0.000
  138  137  139  140        3      30.334     0.000 -30.334  -0.000  -0.000   0.000
  138  137  139  142        3      30.334     0.000 -30.334  -0.000  -0.000   0.000
  139  137  135  134        3      30.334     0.000 -30.334  -0.000  -0.000   0.000
  139  142  133  132        3      30.334     0.000 -30.334  -0.000  -0.000   0.000
  139  142  133  134        3      30.334     0.000 -30.334  -0.000  -0.000   0.000
  139  142  143  145        3      30.334     0.000 -30.334  -0.000  -0.000   0.000
  140  139  137  135        3      30.334     0.000 -30.334  -0.000  -0.000   0.000
  140  139  142  133        3      30.334     0.000 -30.334  -0.000  -0.000   0.000
  140  139  142  143        3      30.334     0.000 -30.334  -0.000  -0.000   0.000
  141  134  133  132        3      30.334     0.000 -30.334  -0.000  -0.000   0.000
  141  654   77   76        3      30.334     0.000 -30.334  -0.000  -0.000   0.000
  141  654   77   78        3      30.334     0.000 -30.334  -0.000  -0.000   0.000
  141  654  131  130        3      30.334     0.000 -30.334  -0.000  -0.000   0.000
  141  654  131  132        3      30.334     0.000 -30.334  -0.000  -0.000   0.000
  141  656   75   74        3       5.230     7.322 -12.552  -0.000  -0.000   0.000
  141  656   75   76        3      14.100     0.000  -9.079  -0.000  -5.021   0.000
  142  133  132  131        3      30.334     0.000 -30.334  -0.000  -0.000   0.000
  142  133  132  146        3      30.334     0.000 -30.334  -0.000  -0.000   0.000
  142  133  134  135        3      30.334     0.000 -30.334  -0.000  -0.000   0.000
  142  133  134  141        3      30.334     0.000 -30.334  -0.000  -0.000   0.000
  142  139  137  135        3      30.334     0.000 -30.334  -0.000  -0.000   0.000
  142  143  145  146        3      30.334     0.000 -30.334  -0.000  -0.000   0.000
  142  143  145  147        3      30.334     0.000 -30.334  -0.000  -0.000   0.000
  143  142  133  132        3      30.334     0.000 -30.334  -0.000  -0.000   0.000
  143  142  133  134        3      30.334     0.000 -30.334  -0.000  -0.000   0.000
  143  145  146  119        3      30.334     0.000 -30.334  -0.000  -0.000   0.000
  143  145  146  132        3      30.334     0.000 -30.334  -0.000  -0.000   0.000
  143  145  147  117        3      30.334     0.000 -30.334  -0.000  -0.000   0.000
  143  145  147  148        3      29.288     0.000 -29.288  -0.000  -0.000   0.000
  144  143  142  133        3      30.334     0.000 -30.334  -0.000  -0.000   0.000
  144  143  142  139        3      30.334     0.000 -30.334  -0.000  -0.000   0.000
  144  143  145  146        3      30.334     0.000 -30.334  -0.000  -0.000   0.000
  144  143  145  147        3      30.334     0.000 -30.334  -0.000  -0.000   0.000
  145  143  142  133        3      30.334     0.000 -30.334  -0.000  -0.000   0.000
  145  146  119  118        3      30.334     0.000 -30.334  -0.000  -0.000   0.000
  145  146  119  120        3      30.334     0.000 -30.334  -0.000  -0.000   0.000
  145  146  132  131        3      30.334     0.000 -30.334  -0.000  -0.000   0.000
  145  146  132  133        3      30.334     0.000 -30.334  -0.000  -0.000   0.000
  145  147  117  115        3      30.334     0.000 -30.334  -0.000  -0.000   0.000
  145  147  117  118        3      30.334     0.000 -30.334  -0.000  -0.000   0.000
  146  119  120  121        3      30.334     0.000 -30.334  -0.000  -0.000   0.000
  146  132  131  654        3      30.334     0.000 -30.334  -0.000  -0.000   0.000
  146  132  133  134        3      30.334     0.000 -30.334  -0.000  -0.000   0.000
  147  117  115  113        3      30.334     0.000 -30.334  -0.000  -0.000   0.000
  147  117  115  116        3      30.334     0.000 -30.334  -0.000  -0.000   0.000
  147  117  118  119        3      30.334     0.000 -30.334  -0.000  -0.000   0.000
  147  117  118  149        3      30.334     0.000 -30.334  -0.000  -0.000   0.000
  147  145  146  119        3      30.334     0.000 -30.334  -0.000  -0.000   0.000
  147  145  146  132        3      30.334     0.000 -30.334  -0.000  -0.000   0.000
  148  147  117  115        3      29.288     0.000 -29.288  -0.000  -0.000   0.000
  148  147  117  118        3      29.288     0.000 -29.288  -0.000  -0.000   0.000
  148  147  145  146        3      29.288     0.000 -29.288  -0.000  -0.000   0.000
  149  112  111  109        3      30.334     0.000 -30.334  -0.000  -0.000   0.000
  149  112  111  150        3      30.334     0.000 -30.334  -0.000  -0.000   0.000
  149  112  113  115        3      29.288     0.000 -29.288  -0.000  -0.000   0.000
  149  118  117  115        3      30.334     0.000 -30.334  -0.000  -0.000   0.000
  149  118  119  146        3      30.334     0.000 -30.334  -0.000  -0.000   0.000
  149  121  120  129        3       6.234     0.000  -6.234  -0.000  -0.000   0.000
  149  121  122  123        3      30.334     0.000 -30.334  -0.000  -0.000   0.000
  149  121  122  150        3      30.334     0.000 -30.334  -0.000  -0.000   0.000
  150  106  105  104        3      30.334     0.000 -30.334  -0.000  -0.000   0.000
  150  106  105  151        3      30.334     0.000 -30.334  -0.000  -0.000   0.000
  150  111  112  113        3      30.334     0.000 -30.334  -0.000  -0.000   0.000
  150  122  121  120        3      30.334     0.000 -30.334  -0.000  -0.000   0.000
  150  122  123  124        3      30.334     0.000 -30.334  -0.000  -0.000   0.000
  150  122  123  151        3      30.334     0.000 -30.334  -0.000  -0.000   0.000
  151  105  104  102        3      14.100     0.000  -9.079  -0.000  -5.021   0.000
  151  105  106  107        3      30.334     0.000 -30.334  -0.000  -0.000   0.000
  151  123  122  121        3      30.334     0.000 -30.334  -0.000  -0.000   0.000
  151  123  124  125        3      30.334     0.000 -30.334  -0.000  -0.000   0.000
  151  123  124  127        3      30.334     0.000 -30.334  -0.000  -0.000   0.000
  151  152  101  100        3      30.334     0.000 -30.334  -0.000  -0.000   0.000
  151  152  101  102        3      30.334     0.000 -30.334  -0.000  -0.000   0.000
  151  152  128  127        3      30.334     0.000 -30.334  -0.000  -0.000   0.000
  151  152  128  647        3      30.334     0.000 -30.334  -0.000  -0.000   0.000
  152  101  100   99        3      30.334     0.000 -30.334  -0.000  -0.000   0.000
  152  101  102  103        3      30.334     0.000 -30.334  -0.000  -0.000   0.000
  152  101  102  104        3      58.576     0.000 -58.576  -0.000  -0.000   0.000
  152  128  127  124        3      30.334     0.000 -30.334  -0.000  -0.000   0.000
  152  128  127  648        3      30.334     0.000 -30.334  -0.000  -0.000   0.000
  152  128  647   85        3      30.334     0.000 -30.334  -0.000  -0.000   0.000
  152  128  647  153        3      30.334     0.000 -30.334  -0.000  -0.000   0.000
  152  151  105  104        3      30.334     0.000 -30.334  -0.000  -0.000   0.000
  152  151  105  106        3      30.334     0.000 -30.334  -0.000  -0.000   0.000
  152  151  123  122        3      30.334     0.000 -30.334  -0.000  -0.000   0.000
  152  151  123  124        3      30.334     0.000 -30.334  -0.000  -0.000   0.000
  153  100   99   98        3      30.334     0.000 -30.334  -0.000  -0.000   0.000
  153  100  101  102        3      30.334     0.000 -30.334  -0.000  -0.000   0.000
  153  100  101  152        3      30.334     0.000 -30.334  -0.000  -0.000   0.000
  153  641   97   96        3      30.334     0.000 -30.334  -0.000  -0.000   0.000
  153  641   97   98        3      30.334     0.000 -30.334  -0.000  -0.000   0.000
  153  641  646   86        3      30.334     0.000 -30.334  -0.000  -0.000   0.000
  153  641  646  645        3      30.334     0.000 -30.334  -0.000  -0.000   0.000
  153  647   85   84        3      30.334     0.000 -30.334  -0.000  -0.000   0.000
  153  647  128  127        3      30.334     0.000 -30.334  -0.000  -0.000   0.000
  154   99   98   97        3      30.334     0.000 -30.334  -0.000  -0.000   0.000
  154   99   98  155        3      30.334     0.000 -30.334  -0.000  -0.000   0.000
  154   99  100  101        3      30.334     0.000 -30.334  -0.000  -0.000   0.000
  154   99  100  153        3      30.334     0.000 -30.334  -0.000  -0.000   0.000
  155   98   97   96        3      30.334     0.000 -30.334  -0.000  -0.000   0.000
  155   98   97  641        3      30.334     0.000 -30.334  -0.000  -0.000   0.000
  155   98   99  100        3      30.334     0.000 -30.334  -0.000  -0.000   0.000
  155  156  157  158        3      30.334     0.000 -30.334  -0.000  -0.000   0.000
  155  156  642   96        3      30.334     0.000 -30.334  -0.000  -0.000   0.000
  155  156  642  549        3      30.334     0.000 -30.334  -0.000  -0.000   0.000
  155  640  613  612        3      30.334     0.000 -30.334  -0.000  -0.000   0.000
  155  640  618  617        3      30.334     0.000 -30.334  -0.000  -0.000   0.000
  155  640  618  619        3      30.334     0.000 -30.334  -0.000  -0.000   0.000
  156  155   98   97        3      30.334     0.000 -30.334  -0.000  -0.000   0.000
  156  155   98   99        3      30.334     0.000 -30.334  -0.000  -0.000   0.000
  156  155  640  618        3       6.234     0.000  -6.234  -0.000  -0.000   0.000
  156  157  158  159        3      30.334     0.000 -30.334  -0.000  -0.000   0.000
  156  642   96   95        3      30.334     0.000 -30.334  -0.000  -0.000   0.000
  156  642   96   97        3      30.334     0.000 -30.334  -0.000  -0.000   0.000
  156  642  549  548        3      30.334     0.000 -30.334  -0.000  -0.000   0.000
  157  156  642   96        3      30.334     0.000 -30.334  -0.000  -0.000   0.000
  157  156  642  549        3      30.334     0.000 -30.334  -0.000  -0.000   0.000
  157  158  159  160        3      30.334     0.000 -30.334  -0.000  -0.000   0.000
  157  158  638  548        3       0.628     1.883   0.000  -2.510  -0.000   0.000
  158  157  156  642        3      30.334     0.000 -30.334  -0.000  -0.000   0.000
  158  159  160  636        3      30.334     0.000 -30.334  -0.000  -0.000   0.000
  158  638  529  528        3      30.334     0.000 -30.334  -0.000  -0.000   0.000
  158  638  548  532        3       6.234     0.000  -6.234  -0.000  -0.000   0.000
  158  638  548  549        3      30.334     0.000 -30.334  -0.000  -0.000   0.000
  159  158  638  548        3       0.628     1.883   0.000  -2.510  -0.000   0.000
  159  160  161  162        3      30.334     0.000 -30.334  -0.000  -0.000   0.000
  159  160  636  528        3      30.334     0.000 -30.334  -0.000  -0.000   0.000
  159  637  634  162        3      14.355     0.000 -14.355  -0.000  -0.000   0.000
  159  637  634  615        3      14.355     0.000 -14.355  -0.000  -0.000   0.000
  160  161  162  163        3      30.334     0.000 -30.334  -0.000  -0.000   0.000
  160  636  528  525        3      30.334     0.000 -30.334  -0.000  -0.000   0.000
  161  160  159  158        3      30.334     0.000 -30.334  -0.000  -0.000   0.000
  161  160  636  528        3      30.334     0.000 -30.334  -0.000  -0.000   0.000
  161  162  163  164        3      30.334     0.000 -30.334  -0.000  -0.000   0.000
  161  162  163  633        3      30.334     0.000 -30.334  -0.000  -0.000   0.000
  161  162  634  615        3      30.334     0.000 -30.334  -0.000  -0.000   0.000
  161  635  164  165        3       6.234     0.000  -6.234  -0.000  -0.000   0.000
  162  163  164  165        3      30.334     0.000 -30.334  -0.000  -0.000   0.000
  162  163  633  616        3      30.334     0.000 -30.334  -0.000  -0.000   0.000
  162  634  615  616        3      30.334     0.000 -30.334  -0.000  -0.000   0.000
  163  162  634  615        3      30.334     0.000 -30.334  -0.000  -0.000   0.000
  163  164  165  166        3       0.628     1.883   0.000  -2.510  -0.000   0.000
  163  633  616  615        3      30.334     0.000 -30.334  -0.000  -0.000   0.000
  164  163  633  603        3      30.334     0.000 -30.334  -0.000  -0.000   0.000
  164  163  633  616        3      30.334     0.000 -30.334  -0.000  -0.000   0.000
  164  165  166  167        3       0.628     1.883   0.000  -2.510  -0.000   0.000
  164  635  161  160        3      30.334     0.000 -30.334  -0.000  -0.000   0.000
  165  164  163  633        3      30.334     0.000 -30.334  -0.000  -0.000   0.000
  165  166  167  168        3       0.628     1.883   0.000  -2.510  -0.000   0.000
  166  167  168  169        3       0.628     1.883   0.000  -2.510  -0.000   0.000
  166  167  168  592        3       0.628     1.883   0.000  -2.510  -0.000   0.000
  167  594  590  589        3      30.334     0.000 -30.334  -0.000  -0.000   0.000
  170  169  168  167        3       0.628     1.883   0.000  -2.510  -0.000   0.000
  170  169  168  592        3       0.628     1.883   0.000  -2.510  -0.000   0.000
  170  171  172  173        3      30.334     0.000 -30.334  -0.000  -0.000   0.000
  170  171  588  589        3      30.334     0.000 -30.334  -0.000  -0.000   0.000
  170  594  167  166        3       6.234     0.000  -6.234  -0.000  -0.000   0.000
  170  594  590  589        3      30.334     0.000 -30.334  -0.000  -0.000   0.000
  170  594  590  635        3      30.334     0.000 -30.334  -0.000  -0.000   0.000
  171  170  169  168        3      30.334     0.000 -30.334  -0.000  -0.000   0.000
  171  170  594  167        3      30.334     0.000 -30.334  -0.000  -0.000   0.000
  171  172  173  174        3      30.334     0.000 -30.334  -0.000  -0.000   0.000
  171  172  587  554        3      30.334     0.000 -30.334  -0.000  -0.000   0.000
  171  588  526  525        3      30.334     0.000 -30.334  -0.000  -0.000   0.000
  171  588  589  590        3      30.334     0.000 -30.334  -0.000  -0.000   0.000
  171  588  589  636        3      30.334     0.000 -30.334  -0.000  -0.000   0.000
  172  171  170  169        3      30.334     0.000 -30.334  -0.000  -0.000   0.000
  172  171  588  589        3      30.334     0.000 -30.334  -0.000  -0.000   0.000
  172  173  174  175        3      30.334     0.000 -30.334  -0.000  -0.000   0.000
  172  173  174  585        3      30.334     0.000 -30.334  -0.000  -0.000   0.000
  172  173  586  177        3      30.334     0.000 -30.334  -0.000  -0.000   0.000
  172  587  554  514        3      30.334     0.000 -30.334  -0.000  -0.000   0.000
  172  587  554  585        3      30.334     0.000 -30.334  -0.000  -0.000   0.000
  173  172  587  554        3      30.334     0.000 -30.334  -0.000  -0.000   0.000
  173  174  175  176        3      30.334     0.000 -30.334  -0.000  -0.000   0.000
  173  174  175  584        3      30.334     0.000 -30.334  -0.000  -0.000   0.000
  173  174  585  554        3      30.334     0.000 -30.334  -0.000  -0.000   0.000
  173  174  585  558        3      30.334     0.000 -30.334  -0.000  -0.000   0.000
  173  586  177  176        3      30.334     0.000 -30.334  -0.000  -0.000   0.000
  173  586  177  178        3      30.334     0.000 -30.334  -0.000  -0.000   0.000
  173  586  591  169        3      30.334     0.000 -30.334  -0.000  -0.000   0.000
  174  173  586  177        3      30.334     0.000 -30.334  -0.000  -0.000   0.000
  174  175  176  177        3      30.334     0.000 -30.334  -0.000  -0.000   0.000
  174  175  584  256        3      30.334     0.000 -30.334  -0.000  -0.000   0.000
  174  175  584  559        3      30.334     0.000 -30.334  -0.000  -0.000   0.000
  174  585  554  514        3      30.334     0.000 -30.334  -0.000  -0.000   0.000
  174  585  558  557        3      30.334     0.000 -30.334  -0.000  -0.000   0.000
  174  585  558  559        3      30.334     0.000 -30.334  -0.000  -0.000   0.000
  175  174  585  554        3      30.334     0.000 -30.334  -0.000  -0.000   0.000
  175  174  585  558        3      30.334     0.000 -30.334  -0.000  -0.000   0.000
  175  176  177  178        3      30.334     0.000 -30.334  -0.000  -0.000   0.000
  175  176  583  179        3      30.334     0.000 -30.334  -0.000  -0.000   0.000
  175  584  256  257        3      30.334     0.000 -30.334  -0.000  -0.000   0.000
  175  584  559  263        3      30.334     0.000 -30.334  -0.000  -0.000   0.000
  175  584  559  558        3      30.334     0.000 -30.334  -0.000  -0.000   0.000
  176  175  174  585        3      30.334     0.000 -30.334  -0.000  -0.000   0.000
  176  175  584  256        3      30.334     0.000 -30.334  -0.000  -0.000   0.000
  176  175  584  559        3      30.334     0.000 -30.334  -0.000  -0.000   0.000
  176  177  178  179        3       0.628     1.883   0.000  -2.510  -0.000   0.000
  176  583  255  256        3      30.334     0.000 -30.334  -0.000  -0.000   0.000
  177  176  175  584        3      30.334     0.000 -30.334  -0.000  -0.000   0.000
  177  586  591  169        3      30.334     0.000 -30.334  -0.000  -0.000   0.000
  178  177  176  583        3      30.334     0.000 -30.334  -0.000  -0.000   0.000
  178  582  591  169        3       0.628     1.883   0.000  -2.510  -0.000   0.000
  179  583  255  256        3      30.334     0.000 -30.334  -0.000  -0.000   0.000
  180  179  178  177        3      30.334     0.000 -30.334  -0.000  -0.000   0.000
  180  179  583  176        3      30.334     0.000 -30.334  -0.000  -0.000   0.000
  180  179  583  255        3      30.334     0.000 -30.334  -0.000  -0.000   0.000
  180  181  182  183        3      30.334     0.000 -30.334  -0.000  -0.000   0.000
  180  181  182  188        3      30.334     0.000 -30.334  -0.000  -0.000   0.000
  180  181  580  191        3      30.334     0.000 -30.334  -0.000  -0.000   0.000
  180  581  250  249        3      30.334     0.000 -30.334  -0.000  -0.000   0.000
  180  581  253  252        3      30.334     0.000 -30.334  -0.000  -0.000   0.000
  181  180  179  178        3      30.334     0.000 -30.334  -0.000  -0.000   0.000
  181  180  581  250        3      30.334     0.000 -30.334  -0.000  -0.000   0.000
  181  182  183  184        3      30.334     0.000 -30.334  -0.000  -0.000   0.000
  181  182  183  582        3      30.334     0.000 -30.334  -0.000  -0.000   0.000
  181  182  188  186        3      30.334     0.000 -30.334  -0.000  -0.000   0.000
  181  182  188  189        3      30.334     0.000 -30.334  -0.000  -0.000   0.000
  181  580  191  189        3      30.334     0.000 -30.334  -0.000  -0.000   0.000
  181  580  191  192        3      30.334     0.000 -30.334  -0.000  -0.000   0.000
  181  580  251  250        3      30.334     0.000 -30.334  -0.000  -0.000   0.000
  181  580  251  579        3      30.334     0.000 -30.334  -0.000  -0.000   0.000
  182  181  180  179        3      29.288     0.000 -29.288  -0.000  -0.000   0.000
  182  181  580  191        3      30.334     0.000 -30.334  -0.000  -0.000   0.000
  182  183  582  178        3       0.628     1.883   0.000  -2.510  -0.000   0.000
  182  188  189  191        3      30.334     0.000 -30.334  -0.000  -0.000   0.000
  183  182  188  189        3      30.334     0.000 -30.334  -0.000  -0.000   0.000
  183  582  178  177        3       0.628     1.883   0.000  -2.510  -0.000   0.000
  183  582  178  179        3       0.628     1.883   0.000  -2.510  -0.000   0.000
  183  582  591  169        3       0.628     1.883   0.000  -2.510  -0.000   0.000
  184  183  182  188        3      30.334     0.000 -30.334  -0.000  -0.000   0.000
  184  183  582  178        3       0.628     1.883   0.000  -2.510  -0.000   0.000
  184  186  188  189        3      30.334     0.000 -30.334  -0.000  -0.000   0.000
  185  184  183  182        3      30.334     0.000 -30.334  -0.000  -0.000   0.000
  185  184  186  188        3      30.334     0.000 -30.334  -0.000  -0.000   0.000
  186  188  189  191        3      30.334     0.000 -30.334  -0.000  -0.000   0.000
  187  186  184  183        3      30.334     0.000 -30.334  -0.000  -0.000   0.000
  187  186  184  185        3      30.334     0.000 -30.334  -0.000  -0.000   0.000
  187  186  188  182        3      30.334     0.000 -30.334  -0.000  -0.000   0.000
  187  186  188  189        3      30.334     0.000 -30.334  -0.000  -0.000   0.000
  188  189  191  192        3      30.334     0.000 -30.334  -0.000  -0.000   0.000
  189  191  192  194        3      30.334     0.000 -30.334  -0.000  -0.000   0.000
  190  189  188  182        3      30.334     0.000 -30.334  -0.000  -0.000   0.000
  190  189  188  186        3      30.334     0.000 -30.334  -0.000  -0.000   0.000
  190  189  191  192        3      30.334     0.000 -30.334  -0.000  -0.000   0.000
  190  189  191  580        3      30.334     0.000 -30.334  -0.000  -0.000   0.000
  191  192  194  195        3      30.334     0.000 -30.334  -0.000  -0.000   0.000
  192  194  195  197        3      30.334     0.000 -30.334  -0.000  -0.000   0.000
  192  194  579  248        3      30.334     0.000 -30.334  -0.000  -0.000   0.000
  193  192  191  189        3      30.334     0.000 -30.334  -0.000  -0.000   0.000
  193  192  191  580        3      30.334     0.000 -30.334  -0.000  -0.000   0.000
  193  192  194  195        3      30.334     0.000 -30.334  -0.000  -0.000   0.000
  193  192  194  579        3      30.334     0.000 -30.334  -0.000  -0.000   0.000
  194  195  197  198        3      30.334     0.000 -30.334  -0.000  -0.000   0.000
  194  195  197  578        3      30.334     0.000 -30.334  -0.000  -0.000   0.000
  194  579  248  247        3      30.334     0.000 -30.334  -0.000  -0.000   0.000
  194  579  248  578        3      30.334     0.000 -30.334  -0.000  -0.000   0.000
  195  194  579  248        3      30.334     0.000 -30.334  -0.000  -0.000   0.000
  195  197  198  200        3      29.288     0.000 -29.288  -0.000  -0.000   0.000
  195  197  578  248        3      30.334     0.000 -30.334  -0.000  -0.000   0.000
  195  197  578  577        3      30.334     0.000 -30.334  -0.000  -0.000   0.000
  196  195  194  192        3      30.334     0.000 -30.334  -0.000  -0.000   0.000
  196  195  194  579        3      30.334     0.000 -30.334  -0.000  -0.000   0.000
  196  195  197  198        3      30.334     0.000 -30.334  -0.000  -0.000   0.000
  196  195  197  578        3      30.334     0.000 -30.334  -0.000  -0.000   0.000
  197  198  200  201        3      24.058    -3.138 -20.920  -0.000  -0.000   0.000
  197  578  248  247        3      30.334     0.000 -30.334  -0.000  -0.000   0.000
  197  578  577  201        3      30.334     0.000 -30.334  -0.000  -0.000   0.000
  197  578  577  242        3      30.334     0.000 -30.334  -0.000  -0.000   0.000
  198  197  578  577        3      30.334     0.000 -30.334  -0.000  -0.000   0.000
  198  200  201  202        3      10.460     0.000 -10.460  -0.000  -0.000   0.000
  198  200  201  577        3      10.460     0.000 -10.460  -0.000  -0.000   0.000
  199  198  197  195        3      29.288     0.000 -29.288  -0.000  -0.000   0.000
  199  198  197  578        3      29.288     0.000 -29.288  -0.000  -0.000   0.000
  199  198  200  201        3      20.920     0.000 -20.920  -0.000  -0.000   0.000
  200  201  202  203        3      30.334     0.000 -30.334  -0.000  -0.000   0.000
  200  201  577  242        3      30.334     0.000 -30.334  -0.000  -0.000   0.000
  201  202  203  205        3      30.334     0.000 -30.334  -0.000  -0.000   0.000
  201  202  576  241        3      30.334     0.000 -30.334  -0.000  -0.000   0.000
  201  577  242  241        3      30.334     0.000 -30.334  -0.000  -0.000   0.000
  202  201  577  242        3      30.334     0.000 -30.334  -0.000  -0.000   0.000
  202  203  205  206        3      30.334     0.000 -30.334  -0.000  -0.000   0.000
  202  576  241  240        3      30.334     0.000 -30.334  -0.000  -0.000   0.000
  202  576  241  242        3      30.334     0.000 -30.334  -0.000  -0.000   0.000
  203  202  201  577        3      30.334     0.000 -30.334  -0.000  -0.000   0.000
  203  202  576  241        3      30.334     0.000 -30.334  -0.000  -0.000   0.000
  203  205  206  207        3      30.334     0.000 -30.334  -0.000  -0.000   0.000
  204  203  202  201        3      30.334     0.000 -30.334  -0.000  -0.000   0.000
  204  203  202  576        3      30.334     0.000 -30.334  -0.000  -0.000   0.000
  204  203  205  206        3      30.334     0.000 -30.334  -0.000  -0.000   0.000
  204  203  205  575        3      30.334     0.000 -30.334  -0.000  -0.000   0.000
  208  206  205  203        3      14.355     0.000 -14.355  -0.000  -0.000   0.000
  208  206  205  575        3      30.334     0.000 -30.334  -0.000  -0.000   0.000
  208  210  211  212        3      14.100     0.000  -9.079  -0.000  -5.021   0.000
  208  210  211  575        3      14.100     0.000  -9.079  -0.000  -5.021   0.000
  209  208  206  205        3      58.576     0.000 -58.576  -0.000  -0.000   0.000
  209  208  206  207        3      58.576     0.000 -58.576  -0.000  -0.000   0.000
  209  208  210  211        3       1.590     4.770   0.000  -6.360  -0.000   0.000
  210  208  206  205        3      58.576     0.000 -58.576  -0.000  -0.000   0.000
  210  208  206  207        3      58.576     0.000 -58.576  -0.000  -0.000   0.000
  210  211  212  213        3      30.334     0.000 -30.334  -0.000  -0.000   0.000
  210  211  575  205        3      30.334     0.000 -30.334  -0.000  -0.000   0.000
  210  211  575  245        3      30.334     0.000 -30.334  -0.000  -0.000   0.000
  211  210  208  206        3       5.230     7.322 -12.552  -0.000  -0.000   0.000
  211  212  213  214        3      18.514     1.234  -3.012 -10.711  -6.025   0.000
  211  212  574  216        3      30.334     0.000 -30.334  -0.000  -0.000   0.000
  211  575  205  203        3      30.334     0.000 -30.334  -0.000  -0.000   0.000
  211  575  205  206        3      30.334     0.000 -30.334  -0.000  -0.000   0.000
  212  211  575  205        3      30.334     0.000 -30.334  -0.000  -0.000   0.000
  212  213  214  215        3      18.514     1.234  -3.012 -10.711  -6.025   0.000
  212  574  216  215        3      30.334     0.000 -30.334  -0.000  -0.000   0.000
  212  574  216  217        3      30.334     0.000 -30.334  -0.000  -0.000   0.000
  213  212  574  216        3      30.334     0.000 -30.334  -0.000  -0.000   0.000
  213  214  215  216        3      30.334     0.000 -30.334  -0.000  -0.000   0.000
  214  215  216  217        3      30.334     0.000 -30.334  -0.000  -0.000   0.000
  215  216  217  218        3      30.334     0.000 -30.334  -0.000  -0.000   0.000
  215  571  569  218        3      30.334     0.000 -30.334  -0.000  -0.000   0.000
  216  217  218  219        3      30.334     0.000 -30.334  -0.000  -0.000   0.000
  217  218  219  220        3      30.334     0.000 -30.334  -0.000  -0.000   0.000
  217  570  243  240        3      30.334     0.000 -30.334  -0.000  -0.000   0.000
  217  570  567  220        3      30.334     0.000 -30.334  -0.000  -0.000   0.000
  218  219  220  221        3      30.334     0.000 -30.334  -0.000  -0.000   0.000
  218  219  568  222        3      30.334     0.000 -30.334  -0.000  -0.000   0.000
  219  220  221  222        3      30.334     0.000 -30.334  -0.000  -0.000   0.000
  219  568  222  223        3       6.234     0.000  -6.234  -0.000  -0.000   0.000
  220  221  222  223        3       6.234     0.000  -6.234  -0.000  -0.000   0.000
  220  567  259  235        3      30.334     0.000 -30.334  -0.000  -0.000   0.000
  220  567  259  238        3      30.334     0.000 -30.334  -0.000  -0.000   0.000
  221  222  223  224        3      30.334     0.000 -30.334  -0.000  -0.000   0.000
  221  566  230  229        3      30.334     0.000 -30.334  -0.000  -0.000   0.000
  221  566  234  235        3      30.334     0.000 -30.334  -0.000  -0.000   0.000
  222  223  224  225        3       6.234     0.000  -6.234  -0.000  -0.000   0.000
  222  223  565  226        3       6.234     0.000  -6.234  -0.000  -0.000   0.000
  223  224  225  226        3      30.334     0.000 -30.334  -0.000  -0.000   0.000
  223  565  226  227        3      30.334     0.000 -30.334  -0.000  -0.000   0.000
  223  565  230  229        3      30.334     0.000 -30.334  -0.000  -0.000   0.000
  224  225  226  227        3      30.334     0.000 -30.334  -0.000  -0.000   0.000
  225  226  227  228        3      30.334     0.000 -30.334  -0.000  -0.000   0.000
  226  227  228  229        3      30.334     0.000 -30.334  -0.000  -0.000   0.000
  226  565  230  229        3      30.334     0.000 -30.334  -0.000  -0.000   0.000
  227  228  229  231        3      30.334     0.000 -30.334  -0.000  -0.000   0.000
  228  229  231  232        3      30.334     0.000 -30.334  -0.000  -0.000   0.000
  228  561  267  266        3      30.334     0.000 -30.334  -0.000  -0.000   0.000
  229  231  232  261        3      30.334     0.000 -30.334  -0.000  -0.000   0.000
  229  231  560  262        3      30.334     0.000 -30.334  -0.000  -0.000   0.000
  230  229  228  227        3      30.334     0.000 -30.334  -0.000  -0.000   0.000
  230  229  228  561        3      30.334     0.000 -30.334  -0.000  -0.000   0.000
  230  229  231  232        3      30.334     0.000 -30.334  -0.000  -0.000   0.000
  230  229  231  560        3      30.334     0.000 -30.334  -0.000  -0.000   0.000
  230  565  223  222        3      30.334     0.000 -30.334  -0.000  -0.000   0.000
  230  565  223  224        3      30.334     0.000 -30.334  -0.000  -0.000   0.000
  230  565  226  225        3      30.334     0.000 -30.334  -0.000  -0.000   0.000
  230  565  226  227        3      30.334     0.000 -30.334  -0.000  -0.000   0.000
  230  566  221  220        3      30.334     0.000 -30.334  -0.000  -0.000   0.000
  230  566  221  222        3      30.334     0.000 -30.334  -0.000  -0.000   0.000
  230  566  234  233        3      30.334     0.000 -30.334  -0.000  -0.000   0.000
  230  566  234  235        3      30.334     0.000 -30.334  -0.000  -0.000   0.000
  231  232  261  257        3      30.334     0.000 -30.334  -0.000  -0.000   0.000
  231  232  261  262        3      30.334     0.000 -30.334  -0.000  -0.000   0.000
  231  560  267  266        3      30.334     0.000 -30.334  -0.000  -0.000   0.000
  232  233  234  235        3      30.334     0.000 -30.334  -0.000  -0.000   0.000
  232  233  260  236        3      30.334     0.000 -30.334  -0.000  -0.000   0.000
  232  233  260  258        3      30.334     0.000 -30.334  -0.000  -0.000   0.000
  232  261  257  256        3      30.334     0.000 -30.334  -0.000  -0.000   0.000
  232  261  257  258        3      30.334     0.000 -30.334  -0.000  -0.000   0.000
  233  232  231  229        3      30.334     0.000 -30.334  -0.000  -0.000   0.000
  233  232  231  560        3       6.234     0.000  -6.234  -0.000  -0.000   0.000
  233  232  261  257        3      30.334     0.000 -30.334  -0.000  -0.000   0.000
  233  232  261  262        3      30.334     0.000 -30.334  -0.000  -0.000   0.000
  233  234  235  259        3      30.334     0.000 -30.334  -0.000  -0.000   0.000
  233  234  566  221        3      30.334     0.000 -30.334  -0.000  -0.000   0.000
  233  260  236  237        3      14.355     0.000 -14.355  -0.000  -0.000   0.000
  233  260  258  257        3      30.334     0.000 -30.334  -0.000  -0.000   0.000
  234  233  232  231        3      30.334     0.000 -30.334  -0.000  -0.000   0.000
  234  233  232  261        3      30.334     0.000 -30.334  -0.000  -0.000   0.000
  234  233  260  258        3      30.334     0.000 -30.334  -0.000  -0.000   0.000
  234  235  236  237        3       0.628     1.883   0.000  -2.510  -0.000   0.000
  234  235  259  238        3      30.334     0.000 -30.334  -0.000  -0.000   0.000
  234  235  259  567        3      30.334     0.000 -30.334  -0.000  -0.000   0.000
  234  566  221  220        3      30.334     0.000 -30.334  -0.000  -0.000   0.000
  234  566  221  222        3      30.334     0.000 -30.334  -0.000  -0.000   0.000
  234  566  230  229        3      30.334     0.000 -30.334  -0.000  -0.000   0.000
  235  236  237  238        3       0.628     1.883   0.000  -2.510  -0.000   0.000
  235  259  238  239        3      30.334     0.000 -30.334  -0.000  -0.000   0.000
  236  237  238  239        3       0.628     1.883   0.000  -2.510  -0.000   0.000
  237  238  239  240        3       0.628     1.883   0.000  -2.510  -0.000   0.000
  238  239  240  241        3      30.334     0.000 -30.334  -0.000  -0.000   0.000
  238  239  246  242        3      30.334     0.000 -30.334  -0.000  -0.000   0.000
  239  240  241  242        3      30.334     0.000 -30.334  -0.000  -0.000   0.000
  239  246  242  577        3      30.334     0.000 -30.334  -0.000  -0.000   0.000
  240  241  242  246        3      30.334     0.000 -30.334  -0.000  -0.000   0.000
  240  241  242  577        3      30.334     0.000 -30.334  -0.000  -0.000   0.000
  243  240  239  238        3      30.334     0.000 -30.334  -0.000  -0.000   0.000
  243  240  241  242        3      30.334     0.000 -30.334  -0.000  -0.000   0.000
  243  244  245  575        3      30.334     0.000 -30.334  -0.000  -0.000   0.000
  243  244  574  212        3      30.334     0.000 -30.334  -0.000  -0.000   0.000
  243  244  574  216        3      30.334     0.000 -30.334  -0.000  -0.000   0.000
  243  570  217  216        3      30.334     0.000 -30.334  -0.000  -0.000   0.000
  243  570  217  218        3      30.334     0.000 -30.334  -0.000  -0.000   0.000
  243  570  567  220        3      30.334     0.000 -30.334  -0.000  -0.000   0.000
  244  243  240  239        3      30.334     0.000 -30.334  -0.000  -0.000   0.000
  244  243  240  241        3      30.334     0.000 -30.334  -0.000  -0.000   0.000
  244  243  570  217        3      30.334     0.000 -30.334  -0.000  -0.000   0.000
  244  245  575  205        3      30.334     0.000 -30.334  -0.000  -0.000   0.000
  244  245  575  211        3      30.334     0.000 -30.334  -0.000  -0.000   0.000
  244  245  576  202        3      30.334     0.000 -30.334  -0.000  -0.000   0.000
  244  245  576  241        3      30.334     0.000 -30.334  -0.000  -0.000   0.000
  244  574  212  211        3      30.334     0.000 -30.334  -0.000  -0.000   0.000
  244  574  212  213        3      30.334     0.000 -30.334  -0.000  -0.000   0.000
  244  574  216  215        3      30.334     0.000 -30.334  -0.000  -0.000   0.000
  244  574  216  217        3      30.334     0.000 -30.334  -0.000  -0.000   0.000
  245  244  243  240        3      30.334     0.000 -30.334  -0.000  -0.000   0.000
  245  244  574  212        3      30.334     0.000 -30.334  -0.000  -0.000   0.000
  245  244  574  216        3      30.334     0.000 -30.334  -0.000  -0.000   0.000
  245  575  205  203        3      30.334     0.000 -30.334  -0.000  -0.000   0.000
  245  575  205  206        3      30.334     0.000 -30.334  -0.000  -0.000   0.000
  245  575  211  212        3      30.334     0.000 -30.334  -0.000  -0.000   0.000
  245  576  202  201        3      30.334     0.000 -30.334  -0.000  -0.000   0.000
  245  576  202  203        3      30.334     0.000 -30.334  -0.000  -0.000   0.000
  245  576  241  240        3      30.334     0.000 -30.334  -0.000  -0.000   0.000
  245  576  241  242        3      30.334     0.000 -30.334  -0.000  -0.000   0.000
  246  239  238  237        3       0.628     1.883   0.000  -2.510  -0.000   0.000
  246  239  238  259        3       0.628     1.883   0.000  -2.510  -0.000   0.000
  246  239  240  243        3      30.334     0.000 -30.334  -0.000  -0.000   0.000
  246  242  241  576        3      30.334     0.000 -30.334  -0.000  -0.000   0.000
  246  242  577  201        3      30.334     0.000 -30.334  -0.000  -0.000   0.000
  246  247  248  578        3      30.334     0.000 -30.334  -0.000  -0.000   0.000
  246  247  249  252        3      30.334     0.000 -30.334  -0.000  -0.000   0.000
  247  246  239  238        3      30.334     0.000 -30.334  -0.000  -0.000   0.000
  247  246  239  240        3      30.334     0.000 -30.334  -0.000  -0.000   0.000
  247  246  242  241        3      30.334     0.000 -30.334  -0.000  -0.000   0.000
  247  246  242  577        3      30.334     0.000 -30.334  -0.000  -0.000   0.000
  247  248  578  577        3      30.334     0.000 -30.334  -0.000  -0.000   0.000
  247  249  252  237        3      30.334     0.000 -30.334  -0.000  -0.000   0.000
  248  247  246  239        3      30.334     0.000 -30.334  -0.000  -0.000   0.000
  248  247  246  242        3      30.334     0.000 -30.334  -0.000  -0.000   0.000
  248  247  249  252        3      30.334     0.000 -30.334  -0.000  -0.000   0.000
  248  578  197  198        3      30.334     0.000 -30.334  -0.000  -0.000   0.000
  248  578  577  201        3      30.334     0.000 -30.334  -0.000  -0.000   0.000
  248  578  577  242        3      30.334     0.000 -30.334  -0.000  -0.000   0.000
  249  247  246  239        3      30.334     0.000 -30.334  -0.000  -0.000   0.000
  249  247  246  242        3      30.334     0.000 -30.334  -0.000  -0.000   0.000
  249  252  237  236        3       0.628     1.883   0.000  -2.510  -0.000   0.000
  249  252  237  238        3       0.628     1.883   0.000  -2.510  -0.000   0.000
  250  249  247  246        3      30.334     0.000 -30.334  -0.000  -0.000   0.000
  250  249  247  248        3      30.334     0.000 -30.334  -0.000  -0.000   0.000
  250  249  252  237        3       6.234     0.000  -6.234  -0.000  -0.000   0.000
  250  251  579  194        3      30.334     0.000 -30.334  -0.000  -0.000   0.000
  250  251  579  248        3      30.334     0.000 -30.334  -0.000  -0.000   0.000
  250  251  580  191        3      30.334     0.000 -30.334  -0.000  -0.000   0.000
  250  581  180  179        3      30.334     0.000 -30.334  -0.000  -0.000   0.000
  251  250  249  247        3      30.334     0.000 -30.334  -0.000  -0.000   0.000
  251  250  249  252        3      30.334     0.000 -30.334  -0.000  -0.000   0.000
  251  250  581  180        3      30.334     0.000 -30.334  -0.000  -0.000   0.000
  251  579  194  192        3      30.334     0.000 -30.334  -0.000  -0.000   0.000
  251  579  194  195        3      30.334     0.000 -30.334  -0.000  -0.000   0.000
  251  579  248  247        3      30.334     0.000 -30.334  -0.000  -0.000   0.000
  251  579  248  578        3      30.334     0.000 -30.334  -0.000  -0.000   0.000
  251  580  181  180        3      30.334     0.000 -30.334  -0.000  -0.000   0.000
  251  580  181  182        3      30.334     0.000 -30.334  -0.000  -0.000   0.000
  251  580  191  189        3      30.334     0.000 -30.334  -0.000  -0.000   0.000
  251  580  191  192        3      30.334     0.000 -30.334  -0.000  -0.000   0.000
  252  237  236  235        3       0.628     1.883   0.000  -2.510  -0.000   0.000
  252  237  238  239        3       0.628     1.883   0.000  -2.510  -0.000   0.000
  252  237  238  259        3       0.628     1.883   0.000  -2.510  -0.000   0.000
  252  253  254  258        3       0.628     1.883   0.000  -2.510  -0.000   0.000
  253  252  237  236        3       0.628     1.883   0.000  -2.510  -0.000   0.000
  253  252  237  238        3       0.628     1.883   0.000  -2.510  -0.000   0.000
  253  252  249  247        3      30.334     0.000 -30.334  -0.000  -0.000   0.000
  253  254  255  256        3      14.355     0.000 -14.355  -0.000  -0.000   0.000
  253  254  255  583        3      14.355     0.000 -14.355  -0.000  -0.000   0.000
  253  254  258  257        3      14.355     0.000 -14.355  -0.000  -0.000   0.000
  253  254  258  260        3      14.355     0.000 -14.355  -0.000  -0.000   0.000
  253  581  180  179        3      30.334     0.000 -30.334  -0.000  -0.000   0.000
  253  581  180  181        3      30.334     0.000 -30.334  -0.000  -0.000   0.000
  253  581  250  251        3      30.334     0.000 -30.334  -0.000  -0.000   0.000
  254  253  252  237        3       0.628     1.883   0.000  -2.510  -0.000   0.000
  254  253  252  249        3       0.628     1.883   0.000  -2.510  -0.000   0.000
  254  253  581  180        3      30.334     0.000 -30.334  -0.000  -0.000   0.000
  254  253  581  250        3       6.234     0.000  -6.234  -0.000  -0.000   0.000
  254  255  256  584        3      30.334     0.000 -30.334  -0.000  -0.000   0.000
  254  255  583  176        3      30.334     0.000 -30.334  -0.000  -0.000   0.000
  254  255  583  179        3      30.334     0.000 -30.334  -0.000  -0.000   0.000
  254  258  257  256        3      30.334     0.000 -30.334  -0.000  -0.000   0.000
  254  258  257  261        3      30.334     0.000 -30.334  -0.000  -0.000   0.000
  254  258  260  233        3      30.334     0.000 -30.334  -0.000  -0.000   0.000
  254  258  260  236        3      30.334     0.000 -30.334  -0.000  -0.000   0.000
  255  254  253  252        3       0.628     1.883   0.000  -2.510  -0.000   0.000
  255  254  253  581        3       0.628     1.883   0.000  -2.510  -0.000   0.000
  255  254  258  260        3      14.355     0.000 -14.355  -0.000  -0.000   0.000
  255  256  257  258        3      30.334     0.000 -30.334  -0.000  -0.000   0.000
  255  256  257  261        3      30.334     0.000 -30.334  -0.000  -0.000   0.000
  255  256  584  175        3      30.334     0.000 -30.334  -0.000  -0.000   0.000
  255  256  584  559        3      30.334     0.000 -30.334  -0.000  -0.000   0.000
  255  583  176  175        3      30.334     0.000 -30.334  -0.000  -0.000   0.000
  255  583  176  177        3      30.334     0.000 -30.334  -0.000  -0.000   0.000
  255  583  179  178        3      30.334     0.000 -30.334  -0.000  -0.000   0.000
  257  258  260  236        3      30.334     0.000 -30.334  -0.000  -0.000   0.000
  258  260  236  235        3      14.355     0.000 -14.355  -0.000  -0.000   0.000
  258  260  236  237        3      14.355     0.000 -14.355  -0.000  -0.000   0.000
  259  238  239  240        3       0.628     1.883   0.000  -2.510  -0.000   0.000
  259  567  220  219        3      30.334     0.000 -30.334  -0.000  -0.000   0.000
  259  567  220  221        3      30.334     0.000 -30.334  -0.000  -0.000   0.000
  259  567  570  217        3      30.334     0.000 -30.334  -0.000  -0.000   0.000
  259  567  570  243        3      30.334     0.000 -30.334  -0.000  -0.000   0.000
  260  233  232  231        3      30.334     0.000 -30.334  -0.000  -0.000   0.000
  260  233  232  261        3      30.334     0.000 -30.334  -0.000  -0.000   0.000
  260  236  235  259        3       0.628     1.883   0.000  -2.510  -0.000   0.000
  260  236  237  238        3       0.628     1.883   0.000  -2.510  -0.000   0.000
  260  236  237  252        3       0.628     1.883   0.000  -2.510  -0.000   0.000
  260  258  257  256        3      30.334     0.000 -30.334  -0.000  -0.000   0.000
  260  258  257  261        3      30.334     0.000 -30.334  -0.000  -0.000   0.000
  261  257  256  584        3      30.334     0.000 -30.334  -0.000  -0.000   0.000
  261  262  263  559        3       0.628     1.883   0.000  -2.510  -0.000   0.000
  262  261  257  256        3      30.334     0.000 -30.334  -0.000  -0.000   0.000
  262  261  257  258        3      30.334     0.000 -30.334  -0.000  -0.000   0.000
  262  263  264  265        3      30.334     0.000 -30.334  -0.000  -0.000   0.000
  262  263  264  557        3       6.234     0.000  -6.234  -0.000  -0.000   0.000
  262  263  559  558        3       6.234     0.000  -6.234  -0.000  -0.000   0.000
  262  263  559  584        3      30.334     0.000 -30.334  -0.000  -0.000   0.000
  262  560  267  266        3      30.334     0.000 -30.334  -0.000  -0.000   0.000
  263  262  261  232        3      14.355     0.000 -14.355  -0.000  -0.000   0.000
  263  262  261  257        3      14.355     0.000 -14.355  -0.000  -0.000   0.000
  263  262  560  231        3       6.234     0.000  -6.234  -0.000  -0.000   0.000
  263  262  560  267        3      30.334     0.000 -30.334  -0.000  -0.000   0.000
  263  264  265  266        3      30.334     0.000 -30.334  -0.000  -0.000   0.000
  263  264  265  511        3      30.334     0.000 -30.334  -0.000  -0.000   0.000
  263  264  557  513        3      30.334     0.000 -30.334  -0.000  -0.000   0.000
  263  264  557  558        3      30.334     0.000 -30.334  -0.000  -0.000   0.000
  263  559  584  256        3      30.334     0.000 -30.334  -0.000  -0.000   0.000
  264  263  262  261        3       0.628     1.883   0.000  -2.510  -0.000   0.000
  264  263  262  560        3       0.628     1.883   0.000  -2.510  -0.000   0.000
  264  263  559  584        3      30.334     0.000 -30.334  -0.000  -0.000   0.000
  264  265  266  267        3      30.334     0.000 -30.334  -0.000  -0.000   0.000
  264  265  266  268        3      30.334     0.000 -30.334  -0.000  -0.000   0.000
  264  265  511  270        3      30.334     0.000 -30.334  -0.000  -0.000   0.000
  264  265  511  512        3      30.334     0.000 -30.334  -0.000  -0.000   0.000
  264  557  513  512        3      30.334     0.000 -30.334  -0.000  -0.000   0.000
  264  557  513  514        3      30.334     0.000 -30.334  -0.000  -0.000   0.000
  264  557  558  559        3      30.334     0.000 -30.334  -0.000  -0.000   0.000
  264  557  558  585        3      30.334     0.000 -30.334  -0.000  -0.000   0.000
  265  264  263  559        3      30.334     0.000 -30.334  -0.000  -0.000   0.000
  265  264  557  513        3      30.334     0.000 -30.334  -0.000  -0.000   0.000
  265  264  557  558        3      30.334     0.000 -30.334  -0.000  -0.000   0.000
  265  266  268  269        3      30.334     0.000 -30.334  -0.000  -0.000   0.000
  265  511  270  269        3      30.334     0.000 -30.334  -0.000  -0.000   0.000
  265  511  270  706        3      30.334     0.000 -30.334  -0.000  -0.000   0.000
  265  511  512  513        3      30.334     0.000 -30.334  -0.000  -0.000   0.000
  265  511  512  555        3      30.334     0.000 -30.334  -0.000  -0.000   0.000
  266  265  264  557        3      30.334     0.000 -30.334  -0.000  -0.000   0.000
  266  265  511  270        3      30.334     0.000 -30.334  -0.000  -0.000   0.000
  266  265  511  512        3      30.334     0.000 -30.334  -0.000  -0.000   0.000
  266  268  269  270        3      30.334     0.000 -30.334  -0.000  -0.000   0.000
  267  266  265  511        3      30.334     0.000 -30.334  -0.000  -0.000   0.000
  267  266  268  269        3      30.334     0.000 -30.334  -0.000  -0.000   0.000
  267  266  268  510        3      30.334     0.000 -30.334  -0.000  -0.000   0.000
  267  560  231  229        3      30.334     0.000 -30.334  -0.000  -0.000   0.000
  267  560  231  232        3      30.334     0.000 -30.334  -0.000  -0.000   0.000
  267  560  262  261        3       9.079     0.000  -9.079  -0.000  -0.000   0.000
  267  561  228  227        3      30.334     0.000 -30.334  -0.000  -0.000   0.000
  267  561  228  229        3      30.334     0.000 -30.334  -0.000  -0.000   0.000
  267  561  504  503        3      30.334     0.000 -30.334  -0.000  -0.000   0.000
  267  561  504  510        3      30.334     0.000 -30.334  -0.000  -0.000   0.000
  268  269  270  706        3      30.334     0.000 -30.334  -0.000  -0.000   0.000
  268  269  271  705        3      30.334     0.000 -30.334  -0.000  -0.000   0.000
  269  270  511  512        3      30.334     0.000 -30.334  -0.000  -0.000   0.000
  269  270  706    1        3      30.334     0.000 -30.334  -0.000  -0.000   0.000
  269  271  705    1        3      30.334     0.000 -30.334  -0.000  -0.000   0.000
  269  271  705  333        3      30.334     0.000 -30.334  -0.000  -0.000   0.000
  270  269  271  705        3      30.334     0.000 -30.334  -0.000  -0.000   0.000
  270  511  512  513        3      30.334     0.000 -30.334  -0.000  -0.000   0.000
  270  511  512  555        3      30.334     0.000 -30.334  -0.000  -0.000   0.000
  270  706    1    2        3      30.334     0.000 -30.334  -0.000  -0.000   0.000
  270  706    1  705        3      30.334     0.000 -30.334  -0.000  -0.000   0.000
  270  706  556  555        3      30.334     0.000 -30.334  -0.000  -0.000   0.000
  271  269  268  266        3      30.334     0.000 -30.334  -0.000  -0.000   0.000
  271  269  270  511        3      30.334     0.000 -30.334  -0.000  -0.000   0.000
  271  269  270  706        3      30.334     0.000 -30.334  -0.000  -0.000   0.000
  271  272  273  274        3      30.334     0.000 -30.334  -0.000  -0.000   0.000
  271  272  509  506        3      30.334     0.000 -30.334  -0.000  -0.000   0.000
  271  705    1    2        3      30.334     0.000 -30.334  -0.000  -0.000   0.000
  271  705    1  706        3      30.334     0.000 -30.334  -0.000  -0.000   0.000
  271  705  333  332        3      30.334     0.000 -30.334  -0.000  -0.000   0.000
  271  705  333  508        3      30.334     0.000 -30.334  -0.000  -0.000   0.000
  272  271  269  268        3      30.334     0.000 -30.334  -0.000  -0.000   0.000
  272  271  269  270        3      30.334     0.000 -30.334  -0.000  -0.000   0.000
  272  271  705    1        3      30.334     0.000 -30.334  -0.000  -0.000   0.000
  272  271  705  333        3      30.334     0.000 -30.334  -0.000  -0.000   0.000
  272  273  274  275        3      30.334     0.000 -30.334  -0.000  -0.000   0.000
  272  273  508  333        3      30.334     0.000 -30.334  -0.000  -0.000   0.000
  272  509  506  275        3      30.334     0.000 -30.334  -0.000  -0.000   0.000
  272  509  510  268        3      30.334     0.000 -30.334  -0.000  -0.000   0.000
  273  272  271  269        3      30.334     0.000 -30.334  -0.000  -0.000   0.000
  273  272  271  705        3      30.334     0.000 -30.334  -0.000  -0.000   0.000
  273  272  509  506        3      30.334     0.000 -30.334  -0.000  -0.000   0.000
  273  274  275  276        3      30.334     0.000 -30.334  -0.000  -0.000   0.000
  273  274  275  506        3      30.334     0.000 -30.334  -0.000  -0.000   0.000
  273  508  333  332        3      30.334     0.000 -30.334  -0.000  -0.000   0.000
  273  508  333  705        3      30.334     0.000 -30.334  -0.000  -0.000   0.000
  273  508  337  334        3      30.334     0.000 -30.334  -0.000  -0.000   0.000
  274  273  508  333        3      30.334     0.000 -30.334  -0.000  -0.000   0.000
  274  275  276  277        3      30.334     0.000 -30.334  -0.000  -0.000   0.000
  275  276  277  278        3      30.334     0.000 -30.334  -0.000  -0.000   0.000
  275  276  277  501        3      30.334     0.000 -30.334  -0.000  -0.000   0.000
  276  277  278  279        3      30.334     0.000 -30.334  -0.000  -0.000   0.000
  276  277  501  439        3      30.334     0.000 -30.334  -0.000  -0.000   0.000
  276  505  499  279        3      30.334     0.000 -30.334  -0.000  -0.000   0.000
  277  276  275  506        3      30.334     0.000 -30.334  -0.000  -0.000   0.000
  277  278  279  280        3      30.334     0.000 -30.334  -0.000  -0.000   0.000
  277  501  439  440        3      30.334     0.000 -30.334  -0.000  -0.000   0.000
  277  501  502  506        3      30.334     0.000 -30.334  -0.000  -0.000   0.000
  278  279  280  281        3      30.334     0.000 -30.334  -0.000  -0.000   0.000
  279  280  281  282        3      30.334     0.000 -30.334  -0.000  -0.000   0.000
  280  281  282  283        3      30.334     0.000 -30.334  -0.000  -0.000   0.000
  281  282  283  284        3      30.334     0.000 -30.334  -0.000  -0.000   0.000
  281  497  285  284        3      30.334     0.000 -30.334  -0.000  -0.000   0.000
  282  283  284  494        3      30.334     0.000 -30.334  -0.000  -0.000   0.000
  283  284  494  368        3      30.334     0.000 -30.334  -0.000  -0.000   0.000
  283  495  369  368        3      30.334     0.000 -30.334  -0.000  -0.000   0.000
  285  284  283  282        3      30.334     0.000 -30.334  -0.000  -0.000   0.000
  285  284  494  368        3      30.334     0.000 -30.334  -0.000  -0.000   0.000
  285  497  281  280        3      30.334     0.000 -30.334  -0.000  -0.000   0.000
  285  497  281  282        3      30.334     0.000 -30.334  -0.000  -0.000   0.000
  286  285  284  283        3      30.334     0.000 -30.334  -0.000  -0.000   0.000
  286  285  284  494        3      30.334     0.000 -30.334  -0.000  -0.000   0.000
  286  285  497  281        3      30.334     0.000 -30.334  -0.000  -0.000   0.000
  286  493  365  494        3      30.334     0.000 -30.334  -0.000  -0.000   0.000
  287  286  285  284        3      30.334     0.000 -30.334  -0.000  -0.000   0.000
  288  287  286  285        3      30.334     0.000 -30.334  -0.000  -0.000   0.000
  288  287  492  292        3      30.334     0.000 -30.334  -0.000  -0.000   0.000
  288  289  497  281        3      30.334     0.000 -30.334  -0.000  -0.000   0.000
  288  289  497  285        3      30.334     0.000 -30.334  -0.000  -0.000   0.000
  288  289  499  279        3      30.334     0.000 -30.334  -0.000  -0.000   0.000
  288  290  291  292        3      30.334     0.000 -30.334  -0.000  -0.000   0.000
  288  290  291  490        3      30.334     0.000 -30.334  -0.000  -0.000   0.000
  288  290  491  507        3      30.334     0.000 -30.334  -0.000  -0.000   0.000
  289  288  287  286        3      30.334     0.000 -30.334  -0.000  -0.000   0.000
  289  288  287  492        3      30.334     0.000 -30.334  -0.000  -0.000   0.000
  289  288  290  291        3      30.334     0.000 -30.334  -0.000  -0.000   0.000
  289  288  290  491        3      30.334     0.000 -30.334  -0.000  -0.000   0.000
  289  497  281  280        3      30.334     0.000 -30.334  -0.000  -0.000   0.000
  289  497  281  282        3      30.334     0.000 -30.334  -0.000  -0.000   0.000
  289  497  285  284        3      30.334     0.000 -30.334  -0.000  -0.000   0.000
  289  497  285  286        3      30.334     0.000 -30.334  -0.000  -0.000   0.000
  289  499  279  278        3      30.334     0.000 -30.334  -0.000  -0.000   0.000
  289  499  279  280        3      30.334     0.000 -30.334  -0.000  -0.000   0.000
  289  499  505  276        3      30.334     0.000 -30.334  -0.000  -0.000   0.000
  289  499  505  491        3      30.334     0.000 -30.334  -0.000  -0.000   0.000
  290  288  287  286        3      30.334     0.000 -30.334  -0.000  -0.000   0.000
  290  288  287  492        3      30.334     0.000 -30.334  -0.000  -0.000   0.000
  290  288  289  499        3      30.334     0.000 -30.334  -0.000  -0.000   0.000
  290  291  292  293        3      30.334     0.000 -30.334  -0.000  -0.000   0.000
  290  291  292  492        3      30.334     0.000 -30.334  -0.000  -0.000   0.000
  290  291  490  336        3      30.334     0.000 -30.334  -0.000  -0.000   0.000
  290  291  490  338        3      30.334     0.000 -30.334  -0.000  -0.000   0.000
  290  491  505  276        3      30.334     0.000 -30.334  -0.000  -0.000   0.000
  290  491  505  499        3      30.334     0.000 -30.334  -0.000  -0.000   0.000
  290  491  507  274        3      30.334     0.000 -30.334  -0.000  -0.000   0.000
  290  491  507  338        3      30.334     0.000 -30.334  -0.000  -0.000   0.000
  291  290  288  287        3      30.334     0.000 -30.334  -0.000  -0.000   0.000
  291  292  293  489        3      30.334     0.000 -30.334  -0.000  -0.000   0.000
  291  292  492  287        3      30.334     0.000 -30.334  -0.000  -0.000   0.000
  291  490  336  335        3      30.334     0.000 -30.334  -0.000  -0.000   0.000
  291  490  336  489        3      30.334     0.000 -30.334  -0.000  -0.000   0.000
  291  490  338  337        3      30.334     0.000 -30.334  -0.000  -0.000   0.000
  292  291  490  336        3      30.334     0.000 -30.334  -0.000  -0.000   0.000
  292  293  489  336        3      30.334     0.000 -30.334  -0.000  -0.000   0.000
  292  293  489  342        3      30.334     0.000 -30.334  -0.000  -0.000   0.000
  292  492  287  286        3      30.334     0.000 -30.334  -0.000  -0.000   0.000
  293  292  492  287        3      30.334     0.000 -30.334  -0.000  -0.000   0.000
  293  292  492  480        3      30.334     0.000 -30.334  -0.000  -0.000   0.000
  293  294  488  480        3      30.334     0.000 -30.334  -0.000  -0.000   0.000
  293  489  336  335        3      30.334     0.000 -30.334  -0.000  -0.000   0.000
  293  489  342  341        3      30.334     0.000 -30.334  -0.000  -0.000   0.000
  293  489  342  487        3      30.334     0.000 -30.334  -0.000  -0.000   0.000
  294  293  292  291        3      30.334     0.000 -30.334  -0.000  -0.000   0.000
  294  293  292  492        3      30.334     0.000 -30.334  -0.000  -0.000   0.000
  294  293  489  336        3      30.334     0.000 -30.334  -0.000  -0.000   0.000
  294  293  489  342        3      30.334     0.000 -30.334  -0.000  -0.000   0.000
  294  295  296  486        3      30.334     0.000 -30.334  -0.000  -0.000   0.000
  294  295  487  325        3      30.334     0.000 -30.334  -0.000  -0.000   0.000
  294  295  487  342        3      30.334     0.000 -30.334  -0.000  -0.000   0.000
  294  488  478  476        3      30.334     0.000 -30.334  -0.000  -0.000   0.000
  294  488  478  486        3      30.334     0.000 -30.334  -0.000  -0.000   0.000
  294  488  480  479        3      30.334     0.000 -30.334  -0.000  -0.000   0.000
  294  488  480  492        3      30.334     0.000 -30.334  -0.000  -0.000   0.000
  295  294  293  292        3      30.334     0.000 -30.334  -0.000  -0.000   0.000
  295  294  488  480        3      30.334     0.000 -30.334  -0.000  -0.000   0.000
  295  296  297  298        3      30.334     0.000 -30.334  -0.000  -0.000   0.000
  295  296  297  485        3      30.334     0.000 -30.334  -0.000  -0.000   0.000
  295  296  486  478        3      30.334     0.000 -30.334  -0.000  -0.000   0.000
  295  296  486  483        3      30.334     0.000 -30.334  -0.000  -0.000   0.000
  295  487  325  324        3      30.334     0.000 -30.334  -0.000  -0.000   0.000
  295  487  325  485        3      30.334     0.000 -30.334  -0.000  -0.000   0.000
  295  487  342  341        3      30.334     0.000 -30.334  -0.000  -0.000   0.000
  296  295  294  293        3      30.334     0.000 -30.334  -0.000  -0.000   0.000
  296  295  294  488        3      30.334     0.000 -30.334  -0.000  -0.000   0.000
  296  295  487  325        3      30.334     0.000 -30.334  -0.000  -0.000   0.000
  296  295  487  342        3      30.334     0.000 -30.334  -0.000  -0.000   0.000
  296  297  298  299        3      30.334     0.000 -30.334  -0.000  -0.000   0.000
  296  297  485  320        3      30.334     0.000 -30.334  -0.000  -0.000   0.000
  296  297  485  325        3      30.334     0.000 -30.334  -0.000  -0.000   0.000
  296  486  483  299        3      30.334     0.000 -30.334  -0.000  -0.000   0.000
  297  296  295  294        3      30.334     0.000 -30.334  -0.000  -0.000   0.000
  297  296  295  487        3      30.334     0.000 -30.334  -0.000  -0.000   0.000
  297  298  299  300        3      30.334     0.000 -30.334  -0.000  -0.000   0.000
  297  298  484  302        3      30.334     0.000 -30.334  -0.000  -0.000   0.000
  297  485  320  319        3      30.334     0.000 -30.334  -0.000  -0.000   0.000
  297  485  320  321        3      30.334     0.000 -30.334  -0.000  -0.000   0.000
  297  485  325  324        3      30.334     0.000 -30.334  -0.000  -0.000   0.000
  297  485  325  487        3      30.334     0.000 -30.334  -0.000  -0.000   0.000
  298  299  300  301        3      29.288     0.000 -29.288  -0.000  -0.000   0.000
  298  299  300  352        3      30.334     0.000 -30.334  -0.000  -0.000   0.000
  298  484  302  301        3      30.334     0.000 -30.334  -0.000  -0.000   0.000
  298  484  302  303        3      30.334     0.000 -30.334  -0.000  -0.000   0.000
  299  298  484  302        3      30.334     0.000 -30.334  -0.000  -0.000   0.000
  299  300  301  302        3      30.334     0.000 -30.334  -0.000  -0.000   0.000
  299  300  352  353        3      18.514     1.234  -3.012 -10.711  -6.025   0.000
  299  483  482  353        3      30.334     0.000 -30.334  -0.000  -0.000   0.000
  300  301  302  303        3      30.334     0.000 -30.334  -0.000  -0.000   0.000
  300  301  350  347        3      30.334     0.000 -30.334  -0.000  -0.000   0.000
  300  352  353  354        3      18.514     1.234  -3.012 -10.711  -6.025   0.000
  301  300  299  483        3      30.334     0.000 -30.334  -0.000  -0.000   0.000
  301  300  352  353        3      18.514     1.234  -3.012 -10.711  -6.025   0.000
  301  302  303  304        3      30.334     0.000 -30.334  -0.000  -0.000   0.000
  301  350  347  304        3      30.334     0.000 -30.334  -0.000  -0.000   0.000
  301  350  347  348        3      30.334     0.000 -30.334  -0.000  -0.000   0.000
  302  301  300  352        3      30.334     0.000 -30.334  -0.000  -0.000   0.000
  302  301  350  347        3      30.334     0.000 -30.334  -0.000  -0.000   0.000
  302  303  304  347        3      30.334     0.000 -30.334  -0.000  -0.000   0.000
  303  304  347  348        3      30.334     0.000 -30.334  -0.000  -0.000   0.000
  305  304  303  302        3      30.334     0.000 -30.334  -0.000  -0.000   0.000
  305  304  347  348        3      30.334     0.000 -30.334  -0.000  -0.000   0.000
  305  307  308  309        3      30.334     0.000 -30.334  -0.000  -0.000   0.000
  305  307  345  312        3      30.334     0.000 -30.334  -0.000  -0.000   0.000
  306  305  304  303        3      30.334     0.000 -30.334  -0.000  -0.000   0.000
  306  305  304  347        3      30.334     0.000 -30.334  -0.000  -0.000   0.000
  306  305  307  308        3      30.334     0.000 -30.334  -0.000  -0.000   0.000
  307  305  304  303        3      30.334     0.000 -30.334  -0.000  -0.000   0.000
  307  305  304  347        3      30.334     0.000 -30.334  -0.000  -0.000   0.000
  307  308  309  310        3      30.334     0.000 -30.334  -0.000  -0.000   0.000
  307  308  349  303        3      30.334     0.000 -30.334  -0.000  -0.000   0.000
  307  345  312  310        3      30.334     0.000 -30.334  -0.000  -0.000   0.000
  307  345  312  313        3      30.334     0.000 -30.334  -0.000  -0.000   0.000
  308  307  305  304        3      30.334     0.000 -30.334  -0.000  -0.000   0.000
  308  307  345  312        3      30.334     0.000 -30.334  -0.000  -0.000   0.000
  308  309  310  312        3      30.334     0.000 -30.334  -0.000  -0.000   0.000
  308  349  303  302        3      30.334     0.000 -30.334  -0.000  -0.000   0.000
  308  349  303  304        3      30.334     0.000 -30.334  -0.000  -0.000   0.000
  309  308  349  303        3      30.334     0.000 -30.334  -0.000  -0.000   0.000
  309  310  312  313        3      30.334     0.000 -30.334  -0.000  -0.000   0.000
  311  310  309  308        3      30.334     0.000 -30.334  -0.000  -0.000   0.000
  311  310  309  314        3      30.334     0.000 -30.334  -0.000  -0.000   0.000
  311  310  312  313        3      30.334     0.000 -30.334  -0.000  -0.000   0.000
  311  310  312  345        3      30.334     0.000 -30.334  -0.000  -0.000   0.000
  314  309  308  307        3      30.334     0.000 -30.334  -0.000  -0.000   0.000
  314  309  310  312        3      30.334     0.000 -30.334  -0.000  -0.000   0.000
  314  317  318  319        3      30.334     0.000 -30.334  -0.000  -0.000   0.000
  314  317  344  321        3      30.334     0.000 -30.334  -0.000  -0.000   0.000
  315  314  309  308        3      30.334     0.000 -30.334  -0.000  -0.000   0.000
  315  314  309  310        3      30.334     0.000 -30.334  -0.000  -0.000   0.000
  315  314  317  318        3      30.334     0.000 -30.334  -0.000  -0.000   0.000
  315  692   14   13        3      30.334     0.000 -30.334  -0.000  -0.000   0.000
  315  692   14   15        3      30.334     0.000 -30.334  -0.000  -0.000   0.000
  315  692  343  318        3      30.334     0.000 -30.334  -0.000  -0.000   0.000
  315  692  343  693        3      30.334     0.000 -30.334  -0.000  -0.000   0.000
  316  315  314  309        3      30.334     0.000 -30.334  -0.000  -0.000   0.000
  316  315  314  317        3      30.334     0.000 -30.334  -0.000  -0.000   0.000
  316  315  692   14        3      30.334     0.000 -30.334  -0.000  -0.000   0.000
  316  315  692  343        3      30.334     0.000 -30.334  -0.000  -0.000   0.000
  317  314  309  308        3      30.334     0.000 -30.334  -0.000  -0.000   0.000
  317  314  309  310        3      30.334     0.000 -30.334  -0.000  -0.000   0.000
  317  318  319  320        3      30.334     0.000 -30.334  -0.000  -0.000   0.000
  317  344  321  320        3      30.334     0.000 -30.334  -0.000  -0.000   0.000
  317  344  321  484        3      30.334     0.000 -30.334  -0.000  -0.000   0.000
  317  344  349  303        3      30.334     0.000 -30.334  -0.000  -0.000   0.000
  317  344  349  308        3      30.334     0.000 -30.334  -0.000  -0.000   0.000
  318  317  314  309        3      30.334     0.000 -30.334  -0.000  -0.000   0.000
  318  317  344  321        3      30.334     0.000 -30.334  -0.000  -0.000   0.000
  318  319  320  321        3      30.334     0.000 -30.334  -0.000  -0.000   0.000
  319  320  321  484        3      30.334     0.000 -30.334  -0.000  -0.000   0.000
  320  321  484  298        3      30.334     0.000 -30.334  -0.000  -0.000   0.000
  320  321  484  302        3      30.334     0.000 -30.334  -0.000  -0.000   0.000
  320  485  297  298        3      30.334     0.000 -30.334  -0.000  -0.000   0.000
  321  344  349  303        3      30.334     0.000 -30.334  -0.000  -0.000   0.000
  321  344  349  308        3      30.334     0.000 -30.334  -0.000  -0.000   0.000
  321  484  298  297        3      30.334     0.000 -30.334  -0.000  -0.000   0.000
  321  484  298  299        3      30.334     0.000 -30.334  -0.000  -0.000   0.000
  321  484  302  301        3      30.334     0.000 -30.334  -0.000  -0.000   0.000
  321  484  302  303        3      30.334     0.000 -30.334  -0.000  -0.000   0.000
  322  319  318  317        3      30.334     0.000 -30.334  -0.000  -0.000   0.000
  322  319  320  321        3      30.334     0.000 -30.334  -0.000  -0.000   0.000
  322  323  693   13        3      30.334     0.000 -30.334  -0.000  -0.000   0.000
  322  323  693  343        3      30.334     0.000 -30.334  -0.000  -0.000   0.000
  322  323  696   10        3      30.334     0.000 -30.334  -0.000  -0.000   0.000
  322  323  696  327        3      30.334     0.000 -30.334  -0.000  -0.000   0.000
  322  324  326  327        3      30.334     0.000 -30.334  -0.000  -0.000   0.000
  323  322  319  318        3      30.334     0.000 -30.334  -0.000  -0.000   0.000
  323  322  319  320        3      30.334     0.000 -30.334  -0.000  -0.000   0.000
  323  693   13   12        3      30.334     0.000 -30.334  -0.000  -0.000   0.000
  323  693   13   14        3      30.334     0.000 -30.334  -0.000  -0.000   0.000
  323  693  343  318        3      30.334     0.000 -30.334  -0.000  -0.000   0.000
  323  693  343  692        3      30.334     0.000 -30.334  -0.000  -0.000   0.000
  323  696   10    9        3      30.334     0.000 -30.334  -0.000  -0.000   0.000
  323  696   10   11        3      30.334     0.000 -30.334  -0.000  -0.000   0.000
  323  696  327  328        3      30.334     0.000 -30.334  -0.000  -0.000   0.000
  324  322  319  318        3      30.334     0.000 -30.334  -0.000  -0.000   0.000
  324  322  319  320        3      30.334     0.000 -30.334  -0.000  -0.000   0.000
  324  322  323  693        3      30.334     0.000 -30.334  -0.000  -0.000   0.000
  324  322  323  696        3      30.334     0.000 -30.334  -0.000  -0.000   0.000
  324  325  485  320        3      30.334     0.000 -30.334  -0.000  -0.000   0.000
  324  326  327  328        3      30.334     0.000 -30.334  -0.000  -0.000   0.000
  324  326  327  696        3      30.334     0.000 -30.334  -0.000  -0.000   0.000
  325  324  322  319        3      30.334     0.000 -30.334  -0.000  -0.000   0.000
  325  324  322  323        3      30.334     0.000 -30.334  -0.000  -0.000   0.000
  325  324  326  327        3      30.334     0.000 -30.334  -0.000  -0.000   0.000
  325  485  297  298        3      30.334     0.000 -30.334  -0.000  -0.000   0.000
  325  485  320  319        3      30.334     0.000 -30.334  -0.000  -0.000   0.000
  325  485  320  321        3      30.334     0.000 -30.334  -0.000  -0.000   0.000
  325  487  342  341        3      30.334     0.000 -30.334  -0.000  -0.000   0.000
  326  324  322  319        3      30.334     0.000 -30.334  -0.000  -0.000   0.000
  326  324  322  323        3      30.334     0.000 -30.334  -0.000  -0.000   0.000
  326  324  325  485        3      30.334     0.000 -30.334  -0.000  -0.000   0.000
  326  324  325  487        3      30.334     0.000 -30.334  -0.000  -0.000   0.000
  326  327  328  329        3      30.334     0.000 -30.334  -0.000  -0.000   0.000
  326  327  328  698        3      30.334     0.000 -30.334  -0.000  -0.000   0.000
  326  327  696   10        3      30.334     0.000 -30.334  -0.000  -0.000   0.000
  326  327  696  323        3      30.334     0.000 -30.334  -0.000  -0.000   0.000
  326  341  340  329        3      30.334     0.000 -30.334  -0.000  -0.000   0.000
  326  341  340  335        3      30.334     0.000 -30.334  -0.000  -0.000   0.000
  326  341  342  487        3      30.334     0.000 -30.334  -0.000  -0.000   0.000
  326  341  342  489        3      30.334     0.000 -30.334  -0.000  -0.000   0.000
  327  328  329  330        3      30.334     0.000 -30.334  -0.000  -0.000   0.000
  327  328  698  339        3      30.334     0.000 -30.334  -0.000  -0.000   0.000
  328  329  330  339        3      30.334     0.000 -30.334  -0.000  -0.000   0.000
  329  328  698  339        3      30.334     0.000 -30.334  -0.000  -0.000   0.000
  330  339  698  328        3      30.334     0.000 -30.334  -0.000  -0.000   0.000
  331  330  329  328        3      30.334     0.000 -30.334  -0.000  -0.000   0.000
  331  330  329  340        3      30.334     0.000 -30.334  -0.000  -0.000   0.000
  331  334  335  340        3      30.334     0.000 -30.334  -0.000  -0.000   0.000
  332  331  330  329        3      30.334     0.000 -30.334  -0.000  -0.000   0.000
  332  331  330  339        3      30.334     0.000 -30.334  -0.000  -0.000   0.000
  332  331  334  335        3      30.334     0.000 -30.334  -0.000  -0.000   0.000
  332  704  701  339        3      30.334     0.000 -30.334  -0.000  -0.000   0.000
  333  332  331  330        3      30.334     0.000 -30.334  -0.000  -0.000   0.000
  333  332  331  334        3      30.334     0.000 -30.334  -0.000  -0.000   0.000
  333  508  337  334        3      30.334     0.000 -30.334  -0.000  -0.000   0.000
  334  331  330  329        3      30.334     0.000 -30.334  -0.000  -0.000   0.000
  334  331  330  339        3      30.334     0.000 -30.334  -0.000  -0.000   0.000
  334  335  340  329        3      30.334     0.000 -30.334  -0.000  -0.000   0.000
  334  335  340  341        3      30.334     0.000 -30.334  -0.000  -0.000   0.000
  335  334  331  330        3      30.334     0.000 -30.334  -0.000  -0.000   0.000
  335  336  489  342        3      30.334     0.000 -30.334  -0.000  -0.000   0.000
  335  340  329  328        3      30.334     0.000 -30.334  -0.000  -0.000   0.000
  335  340  329  330        3      30.334     0.000 -30.334  -0.000  -0.000   0.000
  335  340  341  342        3      30.334     0.000 -30.334  -0.000  -0.000   0.000
  336  335  334  331        3      30.334     0.000 -30.334  -0.000  -0.000   0.000
  336  335  334  337        3      30.334     0.000 -30.334  -0.000  -0.000   0.000
  336  335  340  329        3      30.334     0.000 -30.334  -0.000  -0.000   0.000
  336  335  340  341        3      30.334     0.000 -30.334  -0.000  -0.000   0.000
  336  489  342  341        3      30.334     0.000 -30.334  -0.000  -0.000   0.000
  336  489  342  487        3      30.334     0.000 -30.334  -0.000  -0.000   0.000
  336  490  338  337        3      30.334     0.000 -30.334  -0.000  -0.000   0.000
  337  334  331  330        3      30.334     0.000 -30.334  -0.000  -0.000   0.000
  337  334  331  332        3      30.334     0.000 -30.334  -0.000  -0.000   0.000
  337  334  335  340        3      30.334     0.000 -30.334  -0.000  -0.000   0.000
  337  338  507  274        3      30.334     0.000 -30.334  -0.000  -0.000   0.000
  337  508  273  272        3      30.334     0.000 -30.334  -0.000  -0.000   0.000
  337  508  273  274        3      30.334     0.000 -30.334  -0.000  -0.000   0.000
  337  508  333  332        3      30.334     0.000 -30.334  -0.000  -0.000   0.000
  337  508  333  705        3      30.334     0.000 -30.334  -0.000  -0.000   0.000
  338  337  334  331        3      30.334     0.000 -30.334  -0.000  -0.000   0.000
  338  337  334  335        3      30.334     0.000 -30.334  -0.000  -0.000   0.000
  338  337  508  273        3      30.334     0.000 -30.334  -0.000  -0.000   0.000
  338  337  508  333        3      30.334     0.000 -30.334  -0.000  -0.000   0.000
  338  490  291  292        3      30.334     0.000 -30.334  -0.000  -0.000   0.000
  338  490  336  335        3      30.334     0.000 -30.334  -0.000  -0.000   0.000
  338  490  336  489        3      30.334     0.000 -30.334  -0.000  -0.000   0.000
  338  507  274  273        3      30.334     0.000 -30.334  -0.000  -0.000   0.000
  338  507  274  275        3      30.334     0.000 -30.334  -0.000  -0.000   0.000
  340  329  328  327        3      30.334     0.000 -30.334  -0.000  -0.000   0.000
  340  329  330  339        3      30.334     0.000 -30.334  -0.000  -0.000   0.000
  340  341  326  324        3      30.334     0.000 -30.334  -0.000  -0.000   0.000
  340  341  326  327        3      30.334     0.000 -30.334  -0.000  -0.000   0.000
  341  326  324  322        3      30.334     0.000 -30.334  -0.000  -0.000   0.000
  341  326  324  325        3      30.334     0.000 -30.334  -0.000  -0.000   0.000
  341  326  327  328        3      30.334     0.000 -30.334  -0.000  -0.000   0.000
  341  326  327  696        3      30.334     0.000 -30.334  -0.000  -0.000   0.000
  341  340  329  328        3      30.334     0.000 -30.334  -0.000  -0.000   0.000
  341  340  329  330        3      30.334     0.000 -30.334  -0.000  -0.000   0.000
  342  341  326  324        3      30.334     0.000 -30.334  -0.000  -0.000   0.000
  342  341  326  327        3      30.334     0.000 -30.334  -0.000  -0.000   0.000
  342  341  340  329        3      30.334     0.000 -30.334  -0.000  -0.000   0.000
  342  487  325  324        3      30.334     0.000 -30.334  -0.000  -0.000   0.000
  343  318  317  314        3      30.334     0.000 -30.334  -0.000  -0.000   0.000
  343  318  319  320        3      30.334     0.000 -30.334  -0.000  -0.000   0.000
  343  318  319  322        3      30.334     0.000 -30.334  -0.000  -0.000   0.000
  343  692   14   15        3      30.334     0.000 -30.334  -0.000  -0.000   0.000
  343  692  315  314        3      30.334     0.000 -30.334  -0.000  -0.000   0.000
  343  693   13   12        3      30.334     0.000 -30.334  -0.000  -0.000   0.000
  343  693  323  696        3      30.334     0.000 -30.334  -0.000  -0.000   0.000
  344  317  314  309        3      30.334     0.000 -30.334  -0.000  -0.000   0.000
  344  317  314  315        3      30.334     0.000 -30.334  -0.000  -0.000   0.000
  344  317  318  319        3      30.334     0.000 -30.334  -0.000  -0.000   0.000
  344  317  318  343        3      30.334     0.000 -30.334  -0.000  -0.000   0.000
  344  321  320  319        3      30.334     0.000 -30.334  -0.000  -0.000   0.000
  344  321  320  485        3      30.334     0.000 -30.334  -0.000  -0.000   0.000
  344  321  484  298        3      30.334     0.000 -30.334  -0.000  -0.000   0.000
  344  321  484  302        3      30.334     0.000 -30.334  -0.000  -0.000   0.000
  344  349  303  302        3      30.334     0.000 -30.334  -0.000  -0.000   0.000
  344  349  303  304        3      30.334     0.000 -30.334  -0.000  -0.000   0.000
  344  349  308  307        3      30.334     0.000 -30.334  -0.000  -0.000   0.000
  344  349  308  309        3      30.334     0.000 -30.334  -0.000  -0.000   0.000
  345  307  305  304        3      30.334     0.000 -30.334  -0.000  -0.000   0.000
  345  307  305  306        3      30.334     0.000 -30.334  -0.000  -0.000   0.000
  345  307  308  309        3      30.334     0.000 -30.334  -0.000  -0.000   0.000
  345  307  308  349        3      30.334     0.000 -30.334  -0.000  -0.000   0.000
  345  312  310  309        3      30.334     0.000 -30.334  -0.000  -0.000   0.000
  346  345  307  305        3      30.334     0.000 -30.334  -0.000  -0.000   0.000
  346  345  307  308        3      30.334     0.000 -30.334  -0.000  -0.000   0.000
  346  345  312  310        3      30.334     0.000 -30.334  -0.000  -0.000   0.000
  346  345  312  313        3      30.334     0.000 -30.334  -0.000  -0.000   0.000
  349  303  302  301        3      30.334     0.000 -30.334  -0.000  -0.000   0.000
  349  303  304  305        3      30.334     0.000 -30.334  -0.000  -0.000   0.000
  349  303  304  347        3      30.334     0.000 -30.334  -0.000  -0.000   0.000
  349  308  307  305        3      30.334     0.000 -30.334  -0.000  -0.000   0.000
  349  308  309  310        3      30.334     0.000 -30.334  -0.000  -0.000   0.000
  349  308  309  314        3      30.334     0.000 -30.334  -0.000  -0.000   0.000
  349  344  317  314        3      30.334     0.000 -30.334  -0.000  -0.000   0.000
  349  344  317  318        3      30.334     0.000 -30.334  -0.000  -0.000   0.000
  349  344  321  320        3      30.334     0.000 -30.334  -0.000  -0.000   0.000
  349  344  321  484        3      30.334     0.000 -30.334  -0.000  -0.000   0.000
  350  301  300  299        3      30.334     0.000 -30.334  -0.000  -0.000   0.000
  350  301  300  352        3      30.334     0.000 -30.334  -0.000  -0.000   0.000
  350  301  302  303        3      30.334     0.000 -30.334  -0.000  -0.000   0.000
  350  301  302  484        3      30.334     0.000 -30.334  -0.000  -0.000   0.000
  350  347  304  303        3      30.334     0.000 -30.334  -0.000  -0.000   0.000
  350  347  304  305        3      30.334     0.000 -30.334  -0.000  -0.000   0.000
  351  350  301  300        3      30.334     0.000 -30.334  -0.000  -0.000   0.000
  351  350  301  302        3      30.334     0.000 -30.334  -0.000  -0.000   0.000
  351  350  347  304        3      30.334     0.000 -30.334  -0.000  -0.000   0.000
  351  350  347  348        3      30.334     0.000 -30.334  -0.000  -0.000   0.000
  352  353  354  355        3      30.334     0.000 -30.334  -0.000  -0.000   0.000
  352  353  354  356        3      30.334     0.000 -30.334  -0.000  -0.000   0.000
  353  354  356  357        3      14.355     0.000 -14.355  -0.000  -0.000   0.000
  354  356  357  359        3      58.576     0.000 -58.576  -0.000  -0.000   0.000
  354  356  481  362        3       6.150     0.000  -7.322  -0.000   1.172   0.000
  355  354  356  357        3      30.334     0.000 -30.334  -0.000  -0.000   0.000
  355  354  356  481        3      30.334     0.000 -30.334  -0.000  -0.000   0.000
  356  357  359  360        3       5.230     7.322 -12.552  -0.000  -0.000   0.000
  356  481  362  360        3       6.150     0.000  -7.322  -0.000   1.172   0.000
  356  481  362  363        3       6.150     0.000  -7.322  -0.000   1.172   0.000
  357  356  481  362        3       6.150     0.000  -7.322  -0.000   1.172   0.000
  357  359  360  362        3       5.230     7.322 -12.552  -0.000  -0.000   0.000
  358  357  356  354        3      58.576     0.000 -58.576  -0.000  -0.000   0.000
  358  357  356  481        3      30.334     0.000 -30.334  -0.000  -0.000   0.000
  358  357  359  360        3       1.590     4.770   0.000  -6.360  -0.000   0.000
  359  360  362  363        3      58.576     0.000 -58.576  -0.000  -0.000   0.000
  360  362  363  364        3      14.355     0.000 -14.355  -0.000  -0.000   0.000
  360  362  363  475        3      30.334     0.000 -30.334  -0.000  -0.000   0.000
  361  360  359  357        3       1.590     4.770   0.000  -6.360  -0.000   0.000
  361  360  362  363        3      58.576     0.000 -58.576  -0.000  -0.000   0.000
  361  360  362  481        3      30.334     0.000 -30.334  -0.000  -0.000   0.000
  362  363  364  366        3      29.288     0.000 -29.288  -0.000  -0.000   0.000
  363  364  365  494        3      30.334     0.000 -30.334  -0.000  -0.000   0.000
  363  364  366  367        3      14.100     0.000  -9.079  -0.000  -5.021   0.000
  364  365  493  286        3      30.334     0.000 -30.334  -0.000  -0.000   0.000
  364  365  494  284        3      30.334     0.000 -30.334  -0.000  -0.000   0.000
  364  365  494  368        3      30.334     0.000 -30.334  -0.000  -0.000   0.000
  364  366  367  368        3      18.514     1.234  -3.012 -10.711  -6.025   0.000
  365  364  363  362        3      30.334     0.000 -30.334  -0.000  -0.000   0.000
  365  364  363  475        3      30.334     0.000 -30.334  -0.000  -0.000   0.000
  365  364  366  367        3      14.100     0.000  -9.079  -0.000  -5.021   0.000
  365  493  286  285        3      30.334     0.000 -30.334  -0.000  -0.000   0.000
  365  493  286  287        3      30.334     0.000 -30.334  -0.000  -0.000   0.000
  365  493  479  475        3      30.334     0.000 -30.334  -0.000  -0.000   0.000
  365  493  479  480        3      30.334     0.000 -30.334  -0.000  -0.000   0.000
  365  494  284  283        3      30.334     0.000 -30.334  -0.000  -0.000   0.000
  365  494  284  285        3      30.334     0.000 -30.334  -0.000  -0.000   0.000
  365  494  368  367        3      30.334     0.000 -30.334  -0.000  -0.000   0.000
  365  494  368  369        3      30.334     0.000 -30.334  -0.000  -0.000   0.000
  366  364  365  494        3      30.334     0.000 -30.334  -0.000  -0.000   0.000
  366  367  368  494        3      30.334     0.000 -30.334  -0.000  -0.000   0.000
  367  368  494  284        3      30.334     0.000 -30.334  -0.000  -0.000   0.000
  367  474  472  371        3      30.334     0.000 -30.334  -0.000  -0.000   0.000
  369  368  367  366        3      29.288     0.000 -29.288  -0.000  -0.000   0.000
  369  368  367  474        3      30.334     0.000 -30.334  -0.000  -0.000   0.000
  369  368  494  284        3      30.334     0.000 -30.334  -0.000  -0.000   0.000
  369  370  371  372        3       0.628     1.883   0.000  -2.510  -0.000   0.000
  369  495  283  282        3      30.334     0.000 -30.334  -0.000  -0.000   0.000
  369  495  283  284        3      30.334     0.000 -30.334  -0.000  -0.000   0.000
  370  369  368  367        3      30.334     0.000 -30.334  -0.000  -0.000   0.000
  370  369  368  494        3      30.334     0.000 -30.334  -0.000  -0.000   0.000
  370  369  495  283        3      30.334     0.000 -30.334  -0.000  -0.000   0.000
  370  371  372  373        3      30.334     0.000 -30.334  -0.000  -0.000   0.000
  371  370  369  368        3      30.334     0.000 -30.334  -0.000  -0.000   0.000
  371  372  373  460        3      30.334     0.000 -30.334  -0.000  -0.000   0.000
  372  373  460  461        3      30.334     0.000 -30.334  -0.000  -0.000   0.000
  372  465  463  461        3       6.234     0.000  -6.234  -0.000  -0.000   0.000
  373  460  461  462        3      30.334     0.000 -30.334  -0.000  -0.000   0.000
  374  373  372  371        3      30.334     0.000 -30.334  -0.000  -0.000   0.000
  374  373  460  461        3      30.334     0.000 -30.334  -0.000  -0.000   0.000
  374  375  376  377        3      30.334     0.000 -30.334  -0.000  -0.000   0.000
  374  375  376  455        3      30.334     0.000 -30.334  -0.000  -0.000   0.000
  374  459  431  428        3      30.334     0.000 -30.334  -0.000  -0.000   0.000
  374  459  431  455        3      30.334     0.000 -30.334  -0.000  -0.000   0.000
  374  459  473  370        3      30.334     0.000 -30.334  -0.000  -0.000   0.000
  374  459  473  430        3      30.334     0.000 -30.334  -0.000  -0.000   0.000
  375  374  373  372        3      30.334     0.000 -30.334  -0.000  -0.000   0.000
  375  374  373  460        3      30.334     0.000 -30.334  -0.000  -0.000   0.000
  375  374  459  431        3      30.334     0.000 -30.334  -0.000  -0.000   0.000
  375  376  377  378        3      30.334     0.000 -30.334  -0.000  -0.000   0.000
  375  376  455  431        3      30.334     0.000 -30.334  -0.000  -0.000   0.000
  375  456  457  460        3      30.334     0.000 -30.334  -0.000  -0.000   0.000
  376  375  374  373        3      30.334     0.000 -30.334  -0.000  -0.000   0.000
  377  376  455  431        3      30.334     0.000 -30.334  -0.000  -0.000   0.000
  377  378  379  380        3      30.334     0.000 -30.334  -0.000  -0.000   0.000
  377  378  451  423        3      30.334     0.000 -30.334  -0.000  -0.000   0.000
  377  378  451  432        3      30.334     0.000 -30.334  -0.000  -0.000   0.000
  378  377  376  455        3      30.334     0.000 -30.334  -0.000  -0.000   0.000
  378  379  380  381        3      30.334     0.000 -30.334  -0.000  -0.000   0.000
  378  379  380  448        3      30.334     0.000 -30.334  -0.000  -0.000   0.000
  378  451  423  422        3      30.334     0.000 -30.334  -0.000  -0.000   0.000
  378  451  423  448        3      30.334     0.000 -30.334  -0.000  -0.000   0.000
  378  451  432  424        3      30.334     0.000 -30.334  -0.000  -0.000   0.000
  378  451  432  455        3      30.334     0.000 -30.334  -0.000  -0.000   0.000
  379  378  377  376        3      30.334     0.000 -30.334  -0.000  -0.000   0.000
  379  378  451  423        3      30.334     0.000 -30.334  -0.000  -0.000   0.000
  379  378  451  432        3      30.334     0.000 -30.334  -0.000  -0.000   0.000
  379  380  381  382        3      30.334     0.000 -30.334  -0.000  -0.000   0.000
  379  380  381  447        3      30.334     0.000 -30.334  -0.000  -0.000   0.000
  379  380  448  395        3      30.334     0.000 -30.334  -0.000  -0.000   0.000
  379  380  448  423        3      30.334     0.000 -30.334  -0.000  -0.000   0.000
  381  380  448  395        3      30.334     0.000 -30.334  -0.000  -0.000   0.000
  381  380  448  423        3      30.334     0.000 -30.334  -0.000  -0.000   0.000
  382  381  380  448        3      30.334     0.000 -30.334  -0.000  -0.000   0.000
  382  381  447  388        3      30.334     0.000 -30.334  -0.000  -0.000   0.000
  382  381  447  394        3      30.334     0.000 -30.334  -0.000  -0.000   0.000
  382  383  449  379        3      30.334     0.000 -30.334  -0.000  -0.000   0.000
  382  383  449  450        3      30.334     0.000 -30.334  -0.000  -0.000   0.000
  382  385  387  388        3       1.715     2.845   1.046  -5.607  -0.000   0.000
  383  382  381  380        3      30.334     0.000 -30.334  -0.000  -0.000   0.000
  383  382  381  447        3      30.334     0.000 -30.334  -0.000  -0.000   0.000
  383  449  379  378        3      30.334     0.000 -30.334  -0.000  -0.000   0.000
  383  449  379  380        3      29.288     0.000 -29.288  -0.000  -0.000   0.000
  383  449  450  452        3      18.514     1.234  -3.012 -10.711  -6.025   0.000
  384  383  382  381        3      30.334     0.000 -30.334  -0.000  -0.000   0.000
  384  383  382  385        3      30.334     0.000 -30.334  -0.000  -0.000   0.000
  384  383  449  379        3      30.334     0.000 -30.334  -0.000  -0.000   0.000
  384  383  449  450        3      30.334     0.000 -30.334  -0.000  -0.000   0.000
  385  382  381  380        3      30.334     0.000 -30.334  -0.000  -0.000   0.000
  385  382  381  447        3      30.334     0.000 -30.334  -0.000  -0.000   0.000
  385  382  383  449        3      30.334     0.000 -30.334  -0.000  -0.000   0.000
  385  387  388  447        3      14.100     0.000  -9.079  -0.000  -5.021   0.000
  386  385  382  381        3      30.334     0.000 -30.334  -0.000  -0.000   0.000
  386  385  382  383        3      30.334     0.000 -30.334  -0.000  -0.000   0.000
  386  385  387  388        3       1.590     4.770   0.000  -6.360  -0.000   0.000
  387  385  382  381        3      58.576     0.000 -58.576  -0.000  -0.000   0.000
  387  385  382  383        3      58.576     0.000 -58.576  -0.000  -0.000   0.000
  387  388  447  381        3      30.334     0.000 -30.334  -0.000  -0.000   0.000
  387  388  447  394        3      30.334     0.000 -30.334  -0.000  -0.000   0.000
  388  447  381  380        3      30.334     0.000 -30.334  -0.000  -0.000   0.000
  388  447  394  395        3      30.334     0.000 -30.334  -0.000  -0.000   0.000
  389  388  387  385        3      14.100     0.000  -9.079  -0.000  -5.021   0.000
  389  388  447  381        3      30.334     0.000 -30.334  -0.000  -0.000   0.000
  389  388  447  394        3      30.334     0.000 -30.334  -0.000  -0.000   0.000
  389  390  392  394        3      30.334     0.000 -30.334  -0.000  -0.000   0.000
  390  389  388  387        3      30.334     0.000 -30.334  -0.000  -0.000   0.000
  390  389  388  447        3      30.334     0.000 -30.334  -0.000  -0.000   0.000
  390  392  394  395        3      30.334     0.000 -30.334  -0.000  -0.000   0.000
  390  392  394  447        3      30.334     0.000 -30.334  -0.000  -0.000   0.000
  391  390  389  388        3      30.334     0.000 -30.334  -0.000  -0.000   0.000
  391  390  392  394        3      30.334     0.000 -30.334  -0.000  -0.000   0.000
  392  390  389  388        3      30.334     0.000 -30.334  -0.000  -0.000   0.000
  392  394  395  396        3      30.334     0.000 -30.334  -0.000  -0.000   0.000
  392  394  395  448        3      30.334     0.000 -30.334  -0.000  -0.000   0.000
  392  394  447  381        3      30.334     0.000 -30.334  -0.000  -0.000   0.000
  392  394  447  388        3      30.334     0.000 -30.334  -0.000  -0.000   0.000
  393  392  390  389        3      30.334     0.000 -30.334  -0.000  -0.000   0.000
  393  392  390  391        3      30.334     0.000 -30.334  -0.000  -0.000   0.000
  393  392  394  395        3      30.334     0.000 -30.334  -0.000  -0.000   0.000
  393  392  394  447        3      30.334     0.000 -30.334  -0.000  -0.000   0.000
  394  395  396  397        3      30.334     0.000 -30.334  -0.000  -0.000   0.000
  394  395  448  380        3      30.334     0.000 -30.334  -0.000  -0.000   0.000
  394  395  448  423        3      30.334     0.000 -30.334  -0.000  -0.000   0.000
  394  447  381  380        3      30.334     0.000 -30.334  -0.000  -0.000   0.000
  395  394  447  381        3      30.334     0.000 -30.334  -0.000  -0.000   0.000
  395  396  397  398        3      30.334     0.000 -30.334  -0.000  -0.000   0.000
  395  396  445  422        3      30.334     0.000 -30.334  -0.000  -0.000   0.000
  395  396  445  443        3      30.334     0.000 -30.334  -0.000  -0.000   0.000
  395  448  423  422        3      30.334     0.000 -30.334  -0.000  -0.000   0.000
  396  395  448  380        3      30.334     0.000 -30.334  -0.000  -0.000   0.000
  396  395  448  423        3      30.334     0.000 -30.334  -0.000  -0.000   0.000
  396  397  398  443        3      30.334     0.000 -30.334  -0.000  -0.000   0.000
  396  445  422  421        3      30.334     0.000 -30.334  -0.000  -0.000   0.000
  396  445  422  423        3      30.334     0.000 -30.334  -0.000  -0.000   0.000
  396  445  443  419        3      30.334     0.000 -30.334  -0.000  -0.000   0.000
  397  396  395  448        3      30.334     0.000 -30.334  -0.000  -0.000   0.000
  397  396  445  422        3      30.334     0.000 -30.334  -0.000  -0.000   0.000
  397  398  443  419        3      30.334     0.000 -30.334  -0.000  -0.000   0.000
  398  443  419  420        3      30.334     0.000 -30.334  -0.000  -0.000   0.000
  398  443  445  422        3      30.334     0.000 -30.334  -0.000  -0.000   0.000
  399  398  397  396        3      30.334     0.000 -30.334  -0.000  -0.000   0.000
  399  398  443  419        3      30.334     0.000 -30.334  -0.000  -0.000   0.000
  399  417  418  419        3      30.334     0.000 -30.334  -0.000  -0.000   0.000
  399  417  418  436        3      30.334     0.000 -30.334  -0.000  -0.000   0.000
  399  417  442  441        3      30.334     0.000 -30.334  -0.000  -0.000   0.000
  400  399  398  397        3      30.334     0.000 -30.334  -0.000  -0.000   0.000
  400  399  398  443        3      30.334     0.000 -30.334  -0.000  -0.000   0.000
  400  399  417  418        3      30.334     0.000 -30.334  -0.000  -0.000   0.000
  400  399  417  442        3      30.334     0.000 -30.334  -0.000  -0.000   0.000
  400  401  402  403        3      30.334     0.000 -30.334  -0.000  -0.000   0.000
  400  401  564  224        3      30.334     0.000 -30.334  -0.000  -0.000   0.000
  400  401  564  442        3      30.334     0.000 -30.334  -0.000  -0.000   0.000
  400  416  404  403        3      30.334     0.000 -30.334  -0.000  -0.000   0.000
  400  416  444  397        3      30.334     0.000 -30.334  -0.000  -0.000   0.000
  401  400  399  398        3      30.334     0.000 -30.334  -0.000  -0.000   0.000
  401  400  399  417        3      30.334     0.000 -30.334  -0.000  -0.000   0.000
  401  402  403  404        3      30.334     0.000 -30.334  -0.000  -0.000   0.000
  401  402  568  219        3      30.334     0.000 -30.334  -0.000  -0.000   0.000
  401  402  568  222        3      30.334     0.000 -30.334  -0.000  -0.000   0.000
  401  564  224  223        3      30.334     0.000 -30.334  -0.000  -0.000   0.000
  401  564  224  225        3      30.334     0.000 -30.334  -0.000  -0.000   0.000
  401  564  442  417        3      30.334     0.000 -30.334  -0.000  -0.000   0.000
  401  564  442  441        3      30.334     0.000 -30.334  -0.000  -0.000   0.000
  402  401  400  399        3      30.334     0.000 -30.334  -0.000  -0.000   0.000
  402  401  564  224        3      30.334     0.000 -30.334  -0.000  -0.000   0.000
  402  401  564  442        3      30.334     0.000 -30.334  -0.000  -0.000   0.000
  402  403  404  405        3      30.334     0.000 -30.334  -0.000  -0.000   0.000
  402  403  569  218        3      30.334     0.000 -30.334  -0.000  -0.000   0.000
  402  568  219  218        3      30.334     0.000 -30.334  -0.000  -0.000   0.000
  402  568  219  220        3      30.334     0.000 -30.334  -0.000  -0.000   0.000
  402  568  222  221        3      30.334     0.000 -30.334  -0.000  -0.000   0.000
  402  568  222  223        3      30.334     0.000 -30.334  -0.000  -0.000   0.000
  403  402  568  219        3      30.334     0.000 -30.334  -0.000  -0.000   0.000
  403  402  568  222        3      30.334     0.000 -30.334  -0.000  -0.000   0.000
  403  404  405  409        3      30.334     0.000 -30.334  -0.000  -0.000   0.000
  403  569  218  217        3      30.334     0.000 -30.334  -0.000  -0.000   0.000
  403  569  218  219        3      30.334     0.000 -30.334  -0.000  -0.000   0.000
  403  569  571  215        3      30.334     0.000 -30.334  -0.000  -0.000   0.000
  404  403  569  218        3      30.334     0.000 -30.334  -0.000  -0.000   0.000
  404  405  409  415        3      30.334     0.000 -30.334  -0.000  -0.000   0.000
  404  416  400  399        3      30.334     0.000 -30.334  -0.000  -0.000   0.000
  404  416  400  401        3      30.334     0.000 -30.334  -0.000  -0.000   0.000
  404  416  444  397        3      30.334     0.000 -30.334  -0.000  -0.000   0.000
  405  404  416  400        3      30.334     0.000 -30.334  -0.000  -0.000   0.000
  405  406  571  215        3      30.334     0.000 -30.334  -0.000  -0.000   0.000
  405  409  410  411        3      30.334     0.000 -30.334  -0.000  -0.000   0.000
  405  409  415  413        3      30.334     0.000 -30.334  -0.000  -0.000   0.000
  406  405  404  403        3      30.334     0.000 -30.334  -0.000  -0.000   0.000
  406  405  404  416        3      30.334     0.000 -30.334  -0.000  -0.000   0.000
  406  405  409  410        3      30.334     0.000 -30.334  -0.000  -0.000   0.000
  406  405  409  415        3      30.334     0.000 -30.334  -0.000  -0.000   0.000
  406  407  572  214        3      30.334     0.000 -30.334  -0.000  -0.000   0.000
  406  571  215  214        3      30.334     0.000 -30.334  -0.000  -0.000   0.000
  406  571  215  216        3      30.334     0.000 -30.334  -0.000  -0.000   0.000
  406  571  569  218        3      30.334     0.000 -30.334  -0.000  -0.000   0.000
  406  571  569  403        3      30.334     0.000 -30.334  -0.000  -0.000   0.000
  407  406  405  404        3      30.334     0.000 -30.334  -0.000  -0.000   0.000
  407  406  405  409        3      30.334     0.000 -30.334  -0.000  -0.000   0.000
  407  406  571  215        3      30.334     0.000 -30.334  -0.000  -0.000   0.000
  407  572  214  213        3      30.334     0.000 -30.334  -0.000  -0.000   0.000
  407  572  214  215        3      30.334     0.000 -30.334  -0.000  -0.000   0.000
  408  407  406  405        3      30.334     0.000 -30.334  -0.000  -0.000   0.000
  408  407  572  214        3      30.334     0.000 -30.334  -0.000  -0.000   0.000
  409  405  404  416        3      30.334     0.000 -30.334  -0.000  -0.000   0.000
  409  410  444  397        3       6.150     0.000  -7.322  -0.000   1.172   0.000
  409  410  444  416        3       6.150     0.000  -7.322  -0.000   1.172   0.000
  409  415  413  411        3      30.334     0.000 -30.334  -0.000  -0.000   0.000
  410  409  405  404        3      30.334     0.000 -30.334  -0.000  -0.000   0.000
  410  411  413  415        3       8.786     0.000  -8.786  -0.000  -0.000   0.000
  410  444  397  396        3      30.288    -4.812 -25.476  -0.000  -0.000   0.000
  410  444  397  398        3      30.288    -4.812 -25.476  -0.000  -0.000   0.000
  410  444  416  400        3      30.334     0.000 -30.334  -0.000  -0.000   0.000
  410  444  416  404        3      30.334     0.000 -30.334  -0.000  -0.000   0.000
  411  410  444  397        3      30.288    -4.812 -25.476  -0.000  -0.000   0.000
  411  410  444  416        3       6.150     0.000  -7.322  -0.000   1.172   0.000
  412  411  410  409        3      30.334     0.000 -30.334  -0.000  -0.000   0.000
  412  411  410  444        3      30.334     0.000 -30.334  -0.000  -0.000   0.000
  412  411  413  414        3       0.000     0.000   0.000  -0.000  -0.000   0.000
  412  411  413  415        3      30.334     0.000 -30.334  -0.000  -0.000   0.000
  413  415  409  410        3      30.334     0.000 -30.334  -0.000  -0.000   0.000
  414  413  411  410        3       8.786     0.000  -8.786  -0.000  -0.000   0.000
  414  413  415  409        3      21.439     0.000 -21.439  -0.000  -0.000   0.000
  416  400  399  398        3      30.334     0.000 -30.334  -0.000  -0.000   0.000
  416  400  399  417        3      30.334     0.000 -30.334  -0.000  -0.000   0.000
  416  400  401  402        3      30.334     0.000 -30.334  -0.000  -0.000   0.000
  416  404  403  402        3      30.334     0.000 -30.334  -0.000  -0.000   0.000
  416  404  403  569        3      30.334     0.000 -30.334  -0.000  -0.000   0.000
  416  444  397  396        3       6.150     0.000  -7.322  -0.000   1.172   0.000
  416  444  397  398        3       6.150     0.000  -7.322  -0.000   1.172   0.000
  417  399  398  397        3      30.334     0.000 -30.334  -0.000  -0.000   0.000
  417  399  398  443        3      30.334     0.000 -30.334  -0.000  -0.000   0.000
  417  418  419  420        3      30.334     0.000 -30.334  -0.000  -0.000   0.000
  417  418  419  443        3      30.334     0.000 -30.334  -0.000  -0.000   0.000
  417  418  436  437        3      30.334     0.000 -30.334  -0.000  -0.000   0.000
  417  442  441  437        3      30.334     0.000 -30.334  -0.000  -0.000   0.000
  417  442  564  224        3      30.334     0.000 -30.334  -0.000  -0.000   0.000
  418  417  399  398        3      30.334     0.000 -30.334  -0.000  -0.000   0.000
  418  417  442  441        3      30.334     0.000 -30.334  -0.000  -0.000   0.000
  418  419  420  421        3      30.334     0.000 -30.334  -0.000  -0.000   0.000
  418  419  443  398        3      30.334     0.000 -30.334  -0.000  -0.000   0.000
  418  436  437  438        3      30.334     0.000 -30.334  -0.000  -0.000   0.000
  418  436  437  441        3      30.334     0.000 -30.334  -0.000  -0.000   0.000
  419  420  421  424        3      30.334     0.000 -30.334  -0.000  -0.000   0.000
  420  421  424  425        3      30.334     0.000 -30.334  -0.000  -0.000   0.000
  420  433  426  425        3      30.334     0.000 -30.334  -0.000  -0.000   0.000
  421  424  425  428        3      30.334     0.000 -30.334  -0.000  -0.000   0.000
  421  424  432  455        3      30.334     0.000 -30.334  -0.000  -0.000   0.000
  422  421  420  419        3      30.334     0.000 -30.334  -0.000  -0.000   0.000
  422  421  420  433        3      30.334     0.000 -30.334  -0.000  -0.000   0.000
  422  421  424  425        3      30.334     0.000 -30.334  -0.000  -0.000   0.000
  422  421  424  432        3      30.334     0.000 -30.334  -0.000  -0.000   0.000
  422  423  448  380        3      30.334     0.000 -30.334  -0.000  -0.000   0.000
  422  445  443  419        3      30.334     0.000 -30.334  -0.000  -0.000   0.000
  423  422  421  420        3      30.334     0.000 -30.334  -0.000  -0.000   0.000
  423  422  421  424        3      30.334     0.000 -30.334  -0.000  -0.000   0.000
  423  451  432  424        3      30.334     0.000 -30.334  -0.000  -0.000   0.000
  423  451  432  455        3      30.334     0.000 -30.334  -0.000  -0.000   0.000
  424  425  428  431        3      30.334     0.000 -30.334  -0.000  -0.000   0.000
  424  432  455  376        3      30.334     0.000 -30.334  -0.000  -0.000   0.000
  424  432  455  431        3      30.334     0.000 -30.334  -0.000  -0.000   0.000
  425  424  432  455        3      30.334     0.000 -30.334  -0.000  -0.000   0.000
  425  428  429  430        3      30.334     0.000 -30.334  -0.000  -0.000   0.000
  425  428  431  455        3      30.334     0.000 -30.334  -0.000  -0.000   0.000
  426  425  424  421        3      30.334     0.000 -30.334  -0.000  -0.000   0.000
  426  425  428  429        3      30.334     0.000 -30.334  -0.000  -0.000   0.000
  426  425  428  431        3      30.334     0.000 -30.334  -0.000  -0.000   0.000
  426  427  496  282        3      30.334     0.000 -30.334  -0.000  -0.000   0.000
  426  427  498  280        3      30.334     0.000 -30.334  -0.000  -0.000   0.000
  426  433  420  419        3      30.334     0.000 -30.334  -0.000  -0.000   0.000
  426  433  420  421        3      30.334     0.000 -30.334  -0.000  -0.000   0.000
  426  433  434  436        3      30.334     0.000 -30.334  -0.000  -0.000   0.000
  427  426  425  424        3      30.334     0.000 -30.334  -0.000  -0.000   0.000
  427  426  425  428        3      30.334     0.000 -30.334  -0.000  -0.000   0.000
  427  426  433  420        3      30.334     0.000 -30.334  -0.000  -0.000   0.000
  427  426  433  434        3      30.334     0.000 -30.334  -0.000  -0.000   0.000
  427  496  282  281        3      30.334     0.000 -30.334  -0.000  -0.000   0.000
  427  496  282  283        3      30.334     0.000 -30.334  -0.000  -0.000   0.000
  427  496  429  428        3      30.334     0.000 -30.334  -0.000  -0.000   0.000
  427  496  429  430        3      30.334     0.000 -30.334  -0.000  -0.000   0.000
  427  498  280  279        3      30.334     0.000 -30.334  -0.000  -0.000   0.000
  427  498  280  281        3      30.334     0.000 -30.334  -0.000  -0.000   0.000
  427  498  435  434        3      30.334     0.000 -30.334  -0.000  -0.000   0.000
  427  498  435  500        3      30.334     0.000 -30.334  -0.000  -0.000   0.000
  428  429  496  282        3      30.334     0.000 -30.334  -0.000  -0.000   0.000
  428  431  455  376        3      30.334     0.000 -30.334  -0.000  -0.000   0.000
  429  428  425  424        3      30.334     0.000 -30.334  -0.000  -0.000   0.000
  429  428  431  455        3      30.334     0.000 -30.334  -0.000  -0.000   0.000
  429  430  473  370        3      30.334     0.000 -30.334  -0.000  -0.000   0.000
  429  430  495  283        3      30.334     0.000 -30.334  -0.000  -0.000   0.000
  429  430  495  369        3      30.334     0.000 -30.334  -0.000  -0.000   0.000
  429  496  282  281        3      30.334     0.000 -30.334  -0.000  -0.000   0.000
  429  496  282  283        3      30.334     0.000 -30.334  -0.000  -0.000   0.000
  429  496  427  426        3      30.334     0.000 -30.334  -0.000  -0.000   0.000
  430  429  496  282        3      30.334     0.000 -30.334  -0.000  -0.000   0.000
  430  473  370  371        3       6.234     0.000  -6.234  -0.000  -0.000   0.000
  430  495  283  282        3      30.334     0.000 -30.334  -0.000  -0.000   0.000
  430  495  283  284        3      30.334     0.000 -30.334  -0.000  -0.000   0.000
  430  495  369  368        3      30.334     0.000 -30.334  -0.000  -0.000   0.000
  431  428  429  430        3      30.334     0.000 -30.334  -0.000  -0.000   0.000
  431  459  374  373        3      30.334     0.000 -30.334  -0.000  -0.000   0.000
  431  459  473  370        3      30.334     0.000 -30.334  -0.000  -0.000   0.000
  431  459  473  430        3      30.334     0.000 -30.334  -0.000  -0.000   0.000
  432  424  421  420        3      30.334     0.000 -30.334  -0.000  -0.000   0.000
  432  424  425  426        3      30.334     0.000 -30.334  -0.000  -0.000   0.000
  432  424  425  428        3      30.334     0.000 -30.334  -0.000  -0.000   0.000
  432  451  423  422        3      30.334     0.000 -30.334  -0.000  -0.000   0.000
  432  451  423  448        3      30.334     0.000 -30.334  -0.000  -0.000   0.000
  432  455  376  375        3      30.334     0.000 -30.334  -0.000  -0.000   0.000
  432  455  376  377        3      30.334     0.000 -30.334  -0.000  -0.000   0.000
  432  455  431  428        3      30.334     0.000 -30.334  -0.000  -0.000   0.000
  432  455  431  459        3      30.334     0.000 -30.334  -0.000  -0.000   0.000
  433  420  419  418        3      30.334     0.000 -30.334  -0.000  -0.000   0.000
  433  420  419  443        3      30.334     0.000 -30.334  -0.000  -0.000   0.000
  433  420  421  424        3      30.334     0.000 -30.334  -0.000  -0.000   0.000
  433  426  425  424        3      30.334     0.000 -30.334  -0.000  -0.000   0.000
  433  426  425  428        3      30.334     0.000 -30.334  -0.000  -0.000   0.000
  433  434  435  500        3      30.334     0.000 -30.334  -0.000  -0.000   0.000
  433  434  436  418        3      30.334     0.000 -30.334  -0.000  -0.000   0.000
  433  434  436  437        3      30.334     0.000 -30.334  -0.000  -0.000   0.000
  434  433  420  419        3      30.334     0.000 -30.334  -0.000  -0.000   0.000
  434  433  420  421        3      30.334     0.000 -30.334  -0.000  -0.000   0.000
  434  433  426  425        3      30.334     0.000 -30.334  -0.000  -0.000   0.000
  434  435  498  280        3      30.334     0.000 -30.334  -0.000  -0.000   0.000
  434  435  500  278        3      30.334     0.000 -30.334  -0.000  -0.000   0.000
  434  435  500  438        3      30.334     0.000 -30.334  -0.000  -0.000   0.000
  434  436  418  417        3      30.334     0.000 -30.334  -0.000  -0.000   0.000
  434  436  418  419        3      30.334     0.000 -30.334  -0.000  -0.000   0.000
  434  436  437  438        3      30.334     0.000 -30.334  -0.000  -0.000   0.000
  434  436  437  441        3      30.334     0.000 -30.334  -0.000  -0.000   0.000
  435  434  433  420        3      30.334     0.000 -30.334  -0.000  -0.000   0.000
  435  434  433  426        3      30.334     0.000 -30.334  -0.000  -0.000   0.000
  435  434  436  418        3      30.334     0.000 -30.334  -0.000  -0.000   0.000
  435  434  436  437        3      30.334     0.000 -30.334  -0.000  -0.000   0.000
  435  498  280  279        3      30.334     0.000 -30.334  -0.000  -0.000   0.000
  435  498  280  281        3      30.334     0.000 -30.334  -0.000  -0.000   0.000
  435  498  427  426        3      30.334     0.000 -30.334  -0.000  -0.000   0.000
  435  500  278  277        3      30.334     0.000 -30.334  -0.000  -0.000   0.000
  435  500  278  279        3      30.334     0.000 -30.334  -0.000  -0.000   0.000
  435  500  438  437        3      30.334     0.000 -30.334  -0.000  -0.000   0.000
  435  500  438  439        3      30.334     0.000 -30.334  -0.000  -0.000   0.000
  436  418  417  442        3      30.334     0.000 -30.334  -0.000  -0.000   0.000
  436  418  419  420        3      30.334     0.000 -30.334  -0.000  -0.000   0.000
  436  418  419  443        3      30.334     0.000 -30.334  -0.000  -0.000   0.000
  436  434  433  420        3      30.334     0.000 -30.334  -0.000  -0.000   0.000
  436  434  435  500        3      30.334     0.000 -30.334  -0.000  -0.000   0.000
  436  437  438  439        3      30.334     0.000 -30.334  -0.000  -0.000   0.000
  436  437  438  500        3      30.334     0.000 -30.334  -0.000  -0.000   0.000
  436  437  441  442        3      30.334     0.000 -30.334  -0.000  -0.000   0.000
  437  436  418  419        3      30.334     0.000 -30.334  -0.000  -0.000   0.000
  437  438  439  440        3      30.334     0.000 -30.334  -0.000  -0.000   0.000
  437  438  439  501        3      30.334     0.000 -30.334  -0.000  -0.000   0.000
  437  438  500  278        3      30.334     0.000 -30.334  -0.000  -0.000   0.000
  437  441  563  225        3      30.334     0.000 -30.334  -0.000  -0.000   0.000
  437  441  563  440        3      30.334     0.000 -30.334  -0.000  -0.000   0.000
  438  439  501  277        3      30.334     0.000 -30.334  -0.000  -0.000   0.000
  438  500  278  277        3      30.334     0.000 -30.334  -0.000  -0.000   0.000
  438  500  278  279        3      30.334     0.000 -30.334  -0.000  -0.000   0.000
  439  438  500  278        3      30.334     0.000 -30.334  -0.000  -0.000   0.000
  439  440  562  227        3      30.334     0.000 -30.334  -0.000  -0.000   0.000
  439  440  563  225        3      30.334     0.000 -30.334  -0.000  -0.000   0.000
  439  501  277  278        3      30.334     0.000 -30.334  -0.000  -0.000   0.000
  439  501  502  506        3      30.334     0.000 -30.334  -0.000  -0.000   0.000
  440  562  227  226        3      30.334     0.000 -30.334  -0.000  -0.000   0.000
  440  562  227  228        3      30.334     0.000 -30.334  -0.000  -0.000   0.000
  440  563  225  224        3      30.334     0.000 -30.334  -0.000  -0.000   0.000
  440  563  225  226        3      30.334     0.000 -30.334  -0.000  -0.000   0.000
  441  437  438  439        3      30.334     0.000 -30.334  -0.000  -0.000   0.000
  441  437  438  500        3      30.334     0.000 -30.334  -0.000  -0.000   0.000
  441  442  564  224        3      30.334     0.000 -30.334  -0.000  -0.000   0.000
  441  563  225  224        3      30.334     0.000 -30.334  -0.000  -0.000   0.000
  441  563  225  226        3      30.334     0.000 -30.334  -0.000  -0.000   0.000
  441  563  440  439        3      30.334     0.000 -30.334  -0.000  -0.000   0.000
  442  417  399  398        3      30.334     0.000 -30.334  -0.000  -0.000   0.000
  442  417  418  419        3      30.334     0.000 -30.334  -0.000  -0.000   0.000
  442  441  437  438        3      30.334     0.000 -30.334  -0.000  -0.000   0.000
  442  441  563  225        3      30.334     0.000 -30.334  -0.000  -0.000   0.000
  442  441  563  440        3      30.334     0.000 -30.334  -0.000  -0.000   0.000
  442  564  224  223        3      30.334     0.000 -30.334  -0.000  -0.000   0.000
  442  564  224  225        3      30.334     0.000 -30.334  -0.000  -0.000   0.000
  443  419  420  421        3      30.334     0.000 -30.334  -0.000  -0.000   0.000
  443  445  422  421        3      30.334     0.000 -30.334  -0.000  -0.000   0.000
  443  445  422  423        3      30.334     0.000 -30.334  -0.000  -0.000   0.000
  444  397  396  395        3       9.079     0.000  -9.079  -0.000  -0.000   0.000
  444  397  398  399        3       9.079     0.000  -9.079  -0.000  -0.000   0.000
  444  397  398  443        3       9.079     0.000  -9.079  -0.000  -0.000   0.000
  444  410  409  405        3      30.334     0.000 -30.334  -0.000  -0.000   0.000
  444  410  409  415        3       9.079     0.000  -9.079  -0.000  -0.000   0.000
  444  410  411  413        3       9.079     0.000  -9.079  -0.000  -0.000   0.000
  444  416  400  399        3      30.334     0.000 -30.334  -0.000  -0.000   0.000
  444  416  400  401        3      30.334     0.000 -30.334  -0.000  -0.000   0.000
  444  416  404  403        3      30.334     0.000 -30.334  -0.000  -0.000   0.000
  444  416  404  405        3      30.334     0.000 -30.334  -0.000  -0.000   0.000
  445  396  395  394        3      30.334     0.000 -30.334  -0.000  -0.000   0.000
  445  396  395  448        3      30.334     0.000 -30.334  -0.000  -0.000   0.000
  445  396  397  444        3       9.079     0.000  -9.079  -0.000  -0.000   0.000
  445  422  421  420        3      30.334     0.000 -30.334  -0.000  -0.000   0.000
  445  422  421  424        3      30.334     0.000 -30.334  -0.000  -0.000   0.000
  445  422  423  448        3      30.334     0.000 -30.334  -0.000  -0.000   0.000
  445  422  423  451        3      30.334     0.000 -30.334  -0.000  -0.000   0.000
  445  443  398  399        3      30.334     0.000 -30.334  -0.000  -0.000   0.000
  445  443  419  418        3      30.334     0.000 -30.334  -0.000  -0.000   0.000
  445  443  419  420        3      30.334     0.000 -30.334  -0.000  -0.000   0.000
  446  389  388  387        3      30.334     0.000 -30.334  -0.000  -0.000   0.000
  446  389  388  447        3      30.334     0.000 -30.334  -0.000  -0.000   0.000
  446  389  390  391        3      30.334     0.000 -30.334  -0.000  -0.000   0.000
  446  389  390  392        3      30.334     0.000 -30.334  -0.000  -0.000   0.000
  447  381  380  448        3      30.334     0.000 -30.334  -0.000  -0.000   0.000
  447  394  395  396        3      30.334     0.000 -30.334  -0.000  -0.000   0.000
  447  394  395  448        3      30.334     0.000 -30.334  -0.000  -0.000   0.000
  448  423  422  421        3      30.334     0.000 -30.334  -0.000  -0.000   0.000
  449  379  378  377        3      30.334     0.000 -30.334  -0.000  -0.000   0.000
  449  379  378  451        3      30.334     0.000 -30.334  -0.000  -0.000   0.000
  449  379  380  381        3      30.334     0.000 -30.334  -0.000  -0.000   0.000
  449  379  380  448        3      30.334     0.000 -30.334  -0.000  -0.000   0.000
  449  383  382  381        3      30.334     0.000 -30.334  -0.000  -0.000   0.000
  449  450  452  377        3      18.514     1.234  -3.012 -10.711  -6.025   0.000
  449  450  452  453        3      18.514     1.234  -3.012 -10.711  -6.025   0.000
  450  449  379  378        3      30.334     0.000 -30.334  -0.000  -0.000   0.000
  450  449  379  380        3      30.334     0.000 -30.334  -0.000  -0.000   0.000
  450  452  377  376        3      30.334     0.000 -30.334  -0.000  -0.000   0.000
  450  452  377  378        3      30.334     0.000 -30.334  -0.000  -0.000   0.000
  450  452  453  456        3      30.334     0.000 -30.334  -0.000  -0.000   0.000
  451  378  377  376        3      30.334     0.000 -30.334  -0.000  -0.000   0.000
  451  378  377  452        3      30.334     0.000 -30.334  -0.000  -0.000   0.000
  451  378  379  380        3      30.334     0.000 -30.334  -0.000  -0.000   0.000
  451  423  422  421        3      30.334     0.000 -30.334  -0.000  -0.000   0.000
  451  423  448  380        3      30.334     0.000 -30.334  -0.000  -0.000   0.000
  451  423  448  395        3      30.334     0.000 -30.334  -0.000  -0.000   0.000
  451  432  424  421        3      30.334     0.000 -30.334  -0.000  -0.000   0.000
  451  432  424  425        3      30.334     0.000 -30.334  -0.000  -0.000   0.000
  451  432  455  376        3      30.334     0.000 -30.334  -0.000  -0.000   0.000
  451  432  455  431        3      30.334     0.000 -30.334  -0.000  -0.000   0.000
  452  377  376  375        3      30.334     0.000 -30.334  -0.000  -0.000   0.000
  452  377  376  455        3      30.334     0.000 -30.334  -0.000  -0.000   0.000
  452  377  378  379        3      30.334     0.000 -30.334  -0.000  -0.000   0.000
  452  450  449  379        3      18.514     1.234  -3.012 -10.711  -6.025   0.000
  452  453  456  375        3      30.334     0.000 -30.334  -0.000  -0.000   0.000
  453  452  377  376        3      29.288     0.000 -29.288  -0.000  -0.000   0.000
  453  452  377  378        3      30.334     0.000 -30.334  -0.000  -0.000   0.000
  453  456  375  374        3      30.334     0.000 -30.334  -0.000  -0.000   0.000
  453  456  375  376        3      30.334     0.000 -30.334  -0.000  -0.000   0.000
  453  456  457  460        3      30.334     0.000 -30.334  -0.000  -0.000   0.000
  454  453  452  377        3      30.334     0.000 -30.334  -0.000  -0.000   0.000
  454  453  452  450        3      30.334     0.000 -30.334  -0.000  -0.000   0.000
  454  453  456  375        3      30.334     0.000 -30.334  -0.000  -0.000   0.000
  456  375  374  373        3      30.334     0.000 -30.334  -0.000  -0.000   0.000
  456  375  374  459        3      30.334     0.000 -30.334  -0.000  -0.000   0.000
  456  375  376  377        3      30.334     0.000 -30.334  -0.000  -0.000   0.000
  456  375  376  455        3      30.334     0.000 -30.334  -0.000  -0.000   0.000
  456  453  452  377        3      30.334     0.000 -30.334  -0.000  -0.000   0.000
  456  457  460  373        3      30.334     0.000 -30.334  -0.000  -0.000   0.000
  456  457  460  461        3      30.334     0.000 -30.334  -0.000  -0.000   0.000
  457  456  375  374        3      30.334     0.000 -30.334  -0.000  -0.000   0.000
  457  456  375  376        3      30.334     0.000 -30.334  -0.000  -0.000   0.000
  457  456  453  452        3      30.334     0.000 -30.334  -0.000  -0.000   0.000
  457  456  453  454        3      30.334     0.000 -30.334  -0.000  -0.000   0.000
  457  460  373  372        3      30.334     0.000 -30.334  -0.000  -0.000   0.000
  457  460  373  374        3      30.334     0.000 -30.334  -0.000  -0.000   0.000
  457  460  461  462        3      30.334     0.000 -30.334  -0.000  -0.000   0.000
  458  457  456  375        3      30.334     0.000 -30.334  -0.000  -0.000   0.000
  458  457  456  453        3      30.334     0.000 -30.334  -0.000  -0.000   0.000
  458  457  460  373        3      30.334     0.000 -30.334  -0.000  -0.000   0.000
  458  457  460  461        3      30.334     0.000 -30.334  -0.000  -0.000   0.000
  459  374  373  372        3      30.334     0.000 -30.334  -0.000  -0.000   0.000
  459  374  373  460        3      30.334     0.000 -30.334  -0.000  -0.000   0.000
  459  374  375  376        3      30.334     0.000 -30.334  -0.000  -0.000   0.000
  459  431  428  425        3      30.334     0.000 -30.334  -0.000  -0.000   0.000
  459  431  428  429        3      30.334     0.000 -30.334  -0.000  -0.000   0.000
  459  431  455  376        3      30.334     0.000 -30.334  -0.000  -0.000   0.000
  459  473  370  369        3      30.334     0.000 -30.334  -0.000  -0.000   0.000
  459  473  370  371        3      30.334     0.000 -30.334  -0.000  -0.000   0.000
  459  473  430  429        3      30.334     0.000 -30.334  -0.000  -0.000   0.000
  463  461  460  373        3      30.334     0.000 -30.334  -0.000  -0.000   0.000
  463  461  460  457        3      30.334     0.000 -30.334  -0.000  -0.000   0.000
  463  465  372  371        3      30.334     0.000 -30.334  -0.000  -0.000   0.000
  463  465  372  373        3      30.334     0.000 -30.334  -0.000  -0.000   0.000
  464  463  461  460        3      30.334     0.000 -30.334  -0.000  -0.000   0.000
  464  463  461  462        3      30.334     0.000 -30.334  -0.000  -0.000   0.000
  464  463  465  372        3      30.334     0.000 -30.334  -0.000  -0.000   0.000
  465  372  371  370        3       6.234     0.000  -6.234  -0.000  -0.000   0.000
  465  372  373  374        3      30.334     0.000 -30.334  -0.000  -0.000   0.000
  465  372  373  460        3      30.334     0.000 -30.334  -0.000  -0.000   0.000
  465  463  461  460        3      30.334     0.000 -30.334  -0.000  -0.000   0.000
  465  463  461  462        3      30.334     0.000 -30.334  -0.000  -0.000   0.000
  465  466  472  474        3      30.334     0.000 -30.334  -0.000  -0.000   0.000
  466  465  372  373        3      30.334     0.000 -30.334  -0.000  -0.000   0.000
  466  465  463  461        3       6.234     0.000  -6.234  -0.000  -0.000   0.000
  466  465  463  464        3      30.334     0.000 -30.334  -0.000  -0.000   0.000
  466  472  371  370        3       6.234     0.000  -6.234  -0.000  -0.000   0.000
  466  472  371  372        3      30.334     0.000 -30.334  -0.000  -0.000   0.000
  466  472  474  367        3       6.234     0.000  -6.234  -0.000  -0.000   0.000
  467  466  465  372        3      30.334     0.000 -30.334  -0.000  -0.000   0.000
  467  466  465  463        3      30.334     0.000 -30.334  -0.000  -0.000   0.000
  467  466  472  371        3      30.334     0.000 -30.334  -0.000  -0.000   0.000
  467  466  472  474        3      30.334     0.000 -30.334  -0.000  -0.000   0.000
  467  469  471  474        3       5.230     7.322 -12.552  -0.000  -0.000   0.000
  468  467  466  465        3      30.334     0.000 -30.334  -0.000  -0.000   0.000
  468  467  466  472        3      30.334     0.000 -30.334  -0.000  -0.000   0.000
  469  467  466  465        3      14.355     0.000 -14.355  -0.000  -0.000   0.000
  469  467  466  472        3      14.355     0.000 -14.355  -0.000  -0.000   0.000
  469  471  474  367        3      14.100     0.000  -9.079  -0.000  -5.021   0.000
  469  471  474  472        3      14.100     0.000  -9.079  -0.000  -5.021   0.000
  470  469  467  466        3      58.576     0.000 -58.576  -0.000  -0.000   0.000
  470  469  467  468        3      58.576     0.000 -58.576  -0.000  -0.000   0.000
  470  469  471  474        3       1.590     4.770   0.000  -6.360  -0.000   0.000
  471  469  467  466        3      58.576     0.000 -58.576  -0.000  -0.000   0.000
  471  469  467  468        3      58.576     0.000 -58.576  -0.000  -0.000   0.000
  471  474  367  366        3      30.334     0.000 -30.334  -0.000  -0.000   0.000
  471  474  367  368        3      30.334     0.000 -30.334  -0.000  -0.000   0.000
  471  474  472  371        3       9.079     0.000  -9.079  -0.000  -0.000   0.000
  471  474  472  466        3      30.334     0.000 -30.334  -0.000  -0.000   0.000
  472  371  370  369        3       0.628     1.883   0.000  -2.510  -0.000   0.000
  472  371  370  473        3       0.628     1.883   0.000  -2.510  -0.000   0.000
  472  371  372  373        3      30.334     0.000 -30.334  -0.000  -0.000   0.000
  472  466  465  463        3      30.334     0.000 -30.334  -0.000  -0.000   0.000
  472  474  367  366        3      30.334     0.000 -30.334  -0.000  -0.000   0.000
  472  474  367  368        3      30.334     0.000 -30.334  -0.000  -0.000   0.000
  473  370  369  368        3      30.334     0.000 -30.334  -0.000  -0.000   0.000
  473  370  371  372        3       0.628     1.883   0.000  -2.510  -0.000   0.000
  473  430  429  428        3      30.334     0.000 -30.334  -0.000  -0.000   0.000
  473  430  429  496        3      30.334     0.000 -30.334  -0.000  -0.000   0.000
  473  430  495  283        3      30.334     0.000 -30.334  -0.000  -0.000   0.000
  473  459  374  373        3      30.334     0.000 -30.334  -0.000  -0.000   0.000
  473  459  374  375        3      30.334     0.000 -30.334  -0.000  -0.000   0.000
  473  459  431  428        3      30.334     0.000 -30.334  -0.000  -0.000   0.000
  473  459  431  455        3      30.334     0.000 -30.334  -0.000  -0.000   0.000
  474  367  366  364        3      24.058    -3.138 -20.920  -0.000  -0.000   0.000
  474  367  368  494        3      30.334     0.000 -30.334  -0.000  -0.000   0.000
  474  472  371  370        3      30.334     0.000 -30.334  -0.000  -0.000   0.000
  474  472  371  372        3      30.334     0.000 -30.334  -0.000  -0.000   0.000
  475  363  364  366        3      30.334     0.000 -30.334  -0.000  -0.000   0.000
  475  479  480  492        3      30.334     0.000 -30.334  -0.000  -0.000   0.000
  475  479  493  286        3      30.334     0.000 -30.334  -0.000  -0.000   0.000
  476  475  363  362        3      30.334     0.000 -30.334  -0.000  -0.000   0.000
  476  475  363  364        3      30.334     0.000 -30.334  -0.000  -0.000   0.000
  476  477  481  356        3      30.334     0.000 -30.334  -0.000  -0.000   0.000
  476  477  481  362        3      30.334     0.000 -30.334  -0.000  -0.000   0.000
  476  477  482  353        3      30.334     0.000 -30.334  -0.000  -0.000   0.000
  476  478  486  296        3      30.334     0.000 -30.334  -0.000  -0.000   0.000
  477  476  475  363        3      30.334     0.000 -30.334  -0.000  -0.000   0.000
  477  476  478  486        3      30.334     0.000 -30.334  -0.000  -0.000   0.000
  477  481  356  354        3       6.150     0.000  -7.322  -0.000   1.172   0.000
  477  481  356  357        3       6.150     0.000  -7.322  -0.000   1.172   0.000
  477  481  362  360        3       6.150     0.000  -7.322  -0.000   1.172   0.000
  477  481  362  363        3       6.150     0.000  -7.322  -0.000   1.172   0.000
  477  482  353  352        3      30.334     0.000 -30.334  -0.000  -0.000   0.000
  477  482  353  354        3      30.334     0.000 -30.334  -0.000  -0.000   0.000
  477  482  483  299        3      30.334     0.000 -30.334  -0.000  -0.000   0.000
  477  482  483  486        3      30.334     0.000 -30.334  -0.000  -0.000   0.000
  478  476  475  363        3      30.334     0.000 -30.334  -0.000  -0.000   0.000
  478  476  475  479        3      30.334     0.000 -30.334  -0.000  -0.000   0.000
  478  486  296  297        3      30.334     0.000 -30.334  -0.000  -0.000   0.000
  478  486  483  299        3      30.334     0.000 -30.334  -0.000  -0.000   0.000
  478  488  294  293        3      30.334     0.000 -30.334  -0.000  -0.000   0.000
  478  488  294  295        3      30.334     0.000 -30.334  -0.000  -0.000   0.000
  478  488  480  479        3      30.334     0.000 -30.334  -0.000  -0.000   0.000
  478  488  480  492        3      30.334     0.000 -30.334  -0.000  -0.000   0.000
  479  475  363  362        3      30.334     0.000 -30.334  -0.000  -0.000   0.000
  479  475  363  364        3      30.334     0.000 -30.334  -0.000  -0.000   0.000
  479  475  476  477        3      30.334     0.000 -30.334  -0.000  -0.000   0.000
  479  480  492  287        3      30.334     0.000 -30.334  -0.000  -0.000   0.000
  479  480  492  292        3      30.334     0.000 -30.334  -0.000  -0.000   0.000
  479  493  286  285        3      30.334     0.000 -30.334  -0.000  -0.000   0.000
  479  493  286  287        3      30.334     0.000 -30.334  -0.000  -0.000   0.000
  479  493  365  364        3      30.334     0.000 -30.334  -0.000  -0.000   0.000
  479  493  365  494        3      30.334     0.000 -30.334  -0.000  -0.000   0.000
  480  479  475  363        3      30.334     0.000 -30.334  -0.000  -0.000   0.000
  480  479  475  476        3      30.334     0.000 -30.334  -0.000  -0.000   0.000
  480  479  493  286        3      30.334     0.000 -30.334  -0.000  -0.000   0.000
  480  488  478  476        3      30.334     0.000 -30.334  -0.000  -0.000   0.000
  480  492  287  286        3      30.334     0.000 -30.334  -0.000  -0.000   0.000
  480  492  287  288        3      30.334     0.000 -30.334  -0.000  -0.000   0.000
  480  492  292  291        3      30.334     0.000 -30.334  -0.000  -0.000   0.000
  481  356  354  353        3       0.000     0.000   0.000  -0.000  -0.000   0.000
  481  356  357  359        3      58.576     0.000 -58.576  -0.000  -0.000   0.000
  481  362  360  359        3      58.576     0.000 -58.576  -0.000  -0.000   0.000
  481  362  363  364        3      30.334     0.000 -30.334  -0.000  -0.000   0.000
  481  362  363  475        3      30.334     0.000 -30.334  -0.000  -0.000   0.000
  481  477  476  475        3      30.334     0.000 -30.334  -0.000  -0.000   0.000
  481  477  476  478        3      30.334     0.000 -30.334  -0.000  -0.000   0.000
  481  477  482  353        3      30.334     0.000 -30.334  -0.000  -0.000   0.000
  482  353  352  300        3      18.514     1.234  -3.012 -10.711  -6.025   0.000
  482  353  354  355        3      30.334     0.000 -30.334  -0.000  -0.000   0.000
  482  353  354  356        3      30.334     0.000 -30.334  -0.000  -0.000   0.000
  482  477  476  475        3      30.334     0.000 -30.334  -0.000  -0.000   0.000
  482  477  476  478        3      30.334     0.000 -30.334  -0.000  -0.000   0.000
  482  477  481  356        3      30.334     0.000 -30.334  -0.000  -0.000   0.000
  482  477  481  362        3      30.334     0.000 -30.334  -0.000  -0.000   0.000
  482  483  299  298        3      30.334     0.000 -30.334  -0.000  -0.000   0.000
  482  483  299  300        3      30.334     0.000 -30.334  -0.000  -0.000   0.000
  482  483  486  296        3      30.334     0.000 -30.334  -0.000  -0.000   0.000
  482  483  486  478        3      30.334     0.000 -30.334  -0.000  -0.000   0.000
  483  299  298  297        3      30.334     0.000 -30.334  -0.000  -0.000   0.000
  483  299  300  352        3      30.334     0.000 -30.334  -0.000  -0.000   0.000
  483  482  353  352        3      30.334     0.000 -30.334  -0.000  -0.000   0.000
  483  482  353  354        3      30.334     0.000 -30.334  -0.000  -0.000   0.000
  483  482  477  476        3      30.334     0.000 -30.334  -0.000  -0.000   0.000
  483  482  477  481        3      30.334     0.000 -30.334  -0.000  -0.000   0.000
  483  486  296  297        3      30.334     0.000 -30.334  -0.000  -0.000   0.000
  483  486  478  476        3      30.334     0.000 -30.334  -0.000  -0.000   0.000
  484  298  297  296        3      30.334     0.000 -30.334  -0.000  -0.000   0.000
  484  298  297  485        3      30.334     0.000 -30.334  -0.000  -0.000   0.000
  484  298  299  300        3      30.334     0.000 -30.334  -0.000  -0.000   0.000
  484  298  299  483        3      30.334     0.000 -30.334  -0.000  -0.000   0.000
  484  302  301  300        3      30.334     0.000 -30.334  -0.000  -0.000   0.000
  484  302  303  304        3      30.334     0.000 -30.334  -0.000  -0.000   0.000
  484  302  303  349        3      30.334     0.000 -30.334  -0.000  -0.000   0.000
  485  297  296  486        3      30.334     0.000 -30.334  -0.000  -0.000   0.000
  485  297  298  299        3      30.334     0.000 -30.334  -0.000  -0.000   0.000
  485  320  319  318        3      30.334     0.000 -30.334  -0.000  -0.000   0.000
  485  320  319  322        3      30.334     0.000 -30.334  -0.000  -0.000   0.000
  485  320  321  484        3      30.334     0.000 -30.334  -0.000  -0.000   0.000
  485  325  324  322        3      30.334     0.000 -30.334  -0.000  -0.000   0.000
  485  325  487  342        3      30.334     0.000 -30.334  -0.000  -0.000   0.000
  486  296  297  298        3      30.334     0.000 -30.334  -0.000  -0.000   0.000
  486  478  476  475        3      30.334     0.000 -30.334  -0.000  -0.000   0.000
  486  478  488  480        3      30.334     0.000 -30.334  -0.000  -0.000   0.000
  486  483  299  298        3      30.334     0.000 -30.334  -0.000  -0.000   0.000
  486  483  299  300        3      30.334     0.000 -30.334  -0.000  -0.000   0.000
  486  483  482  353        3      30.334     0.000 -30.334  -0.000  -0.000   0.000
  487  295  294  293        3      30.334     0.000 -30.334  -0.000  -0.000   0.000
  487  295  294  488        3      30.334     0.000 -30.334  -0.000  -0.000   0.000
  487  295  296  486        3      30.334     0.000 -30.334  -0.000  -0.000   0.000
  487  325  324  322        3      30.334     0.000 -30.334  -0.000  -0.000   0.000
  487  325  485  320        3      30.334     0.000 -30.334  -0.000  -0.000   0.000
  487  342  341  340        3      30.334     0.000 -30.334  -0.000  -0.000   0.000
  488  294  293  292        3      30.334     0.000 -30.334  -0.000  -0.000   0.000
  488  294  293  489        3      30.334     0.000 -30.334  -0.000  -0.000   0.000
  488  478  476  475        3      30.334     0.000 -30.334  -0.000  -0.000   0.000
  488  478  476  477        3      30.334     0.000 -30.334  -0.000  -0.000   0.000
  488  478  486  296        3      30.334     0.000 -30.334  -0.000  -0.000   0.000
  488  478  486  483        3      30.334     0.000 -30.334  -0.000  -0.000   0.000
  488  480  479  475        3      30.334     0.000 -30.334  -0.000  -0.000   0.000
  488  480  492  287        3      30.334     0.000 -30.334  -0.000  -0.000   0.000
  488  480  492  292        3      30.334     0.000 -30.334  -0.000  -0.000   0.000
  489  293  292  492        3      30.334     0.000 -30.334  -0.000  -0.000   0.000
  489  293  294  295        3      30.334     0.000 -30.334  -0.000  -0.000   0.000
  489  336  335  334        3      30.334     0.000 -30.334  -0.000  -0.000   0.000
  489  336  335  340        3      30.334     0.000 -30.334  -0.000  -0.000   0.000
  489  342  341  340        3      30.334     0.000 -30.334  -0.000  -0.000   0.000
  489  342  487  295        3      30.334     0.000 -30.334  -0.000  -0.000   0.000
  489  342  487  325        3      30.334     0.000 -30.334  -0.000  -0.000   0.000
  490  291  292  293        3      30.334     0.000 -30.334  -0.000  -0.000   0.000
  490  291  292  492        3      30.334     0.000 -30.334  -0.000  -0.000   0.000
  490  336  335  334        3      30.334     0.000 -30.334  -0.000  -0.000   0.000
  490  336  335  340        3      30.334     0.000 -30.334  -0.000  -0.000   0.000
  490  336  489  293        3      30.334     0.000 -30.334  -0.000  -0.000   0.000
  490  336  489  342        3      30.334     0.000 -30.334  -0.000  -0.000   0.000
  490  338  337  334        3      30.334     0.000 -30.334  -0.000  -0.000   0.000
  490  338  507  274        3      30.334     0.000 -30.334  -0.000  -0.000   0.000
  491  290  288  287        3      30.334     0.000 -30.334  -0.000  -0.000   0.000
  491  290  291  292        3      30.334     0.000 -30.334  -0.000  -0.000   0.000
  491  290  291  490        3      30.334     0.000 -30.334  -0.000  -0.000   0.000
  491  505  276  275        3      30.334     0.000 -30.334  -0.000  -0.000   0.000
  491  505  276  277        3      30.334     0.000 -30.334  -0.000  -0.000   0.000
  491  505  499  279        3      30.334     0.000 -30.334  -0.000  -0.000   0.000
  491  507  274  273        3      30.334     0.000 -30.334  -0.000  -0.000   0.000
  491  507  274  275        3      30.334     0.000 -30.334  -0.000  -0.000   0.000
  491  507  338  337        3      30.334     0.000 -30.334  -0.000  -0.000   0.000
  491  507  338  490        3      30.334     0.000 -30.334  -0.000  -0.000   0.000
  492  287  286  285        3      30.334     0.000 -30.334  -0.000  -0.000   0.000
  493  286  285  284        3      30.334     0.000 -30.334  -0.000  -0.000   0.000
  493  286  285  497        3      30.334     0.000 -30.334  -0.000  -0.000   0.000
  493  286  287  288        3      30.334     0.000 -30.334  -0.000  -0.000   0.000
  493  286  287  492        3      30.334     0.000 -30.334  -0.000  -0.000   0.000
  493  365  364  363        3      29.288     0.000 -29.288  -0.000  -0.000   0.000
  493  365  364  366        3      30.334     0.000 -30.334  -0.000  -0.000   0.000
  493  365  494  284        3      30.334     0.000 -30.334  -0.000  -0.000   0.000
  493  365  494  368        3      30.334     0.000 -30.334  -0.000  -0.000   0.000
  493  479  475  363        3      30.334     0.000 -30.334  -0.000  -0.000   0.000
  493  479  475  476        3      30.334     0.000 -30.334  -0.000  -0.000   0.000
  493  479  480  488        3      30.334     0.000 -30.334  -0.000  -0.000   0.000
  493  479  480  492        3      30.334     0.000 -30.334  -0.000  -0.000   0.000
  495  283  282  281        3      30.334     0.000 -30.334  -0.000  -0.000   0.000
  495  283  284  285        3      30.334     0.000 -30.334  -0.000  -0.000   0.000
  495  283  284  494        3      30.334     0.000 -30.334  -0.000  -0.000   0.000
  495  369  368  367        3      30.334     0.000 -30.334  -0.000  -0.000   0.000
  495  369  368  494        3      30.334     0.000 -30.334  -0.000  -0.000   0.000
  495  369  370  371        3       6.234     0.000  -6.234  -0.000  -0.000   0.000
  495  430  429  428        3      30.334     0.000 -30.334  -0.000  -0.000   0.000
  495  430  473  459        3      30.334     0.000 -30.334  -0.000  -0.000   0.000
  496  282  281  280        3      30.334     0.000 -30.334  -0.000  -0.000   0.000
  496  282  281  497        3      30.334     0.000 -30.334  -0.000  -0.000   0.000
  496  282  283  284        3      30.334     0.000 -30.334  -0.000  -0.000   0.000
  496  282  283  495        3      30.334     0.000 -30.334  -0.000  -0.000   0.000
  496  427  426  425        3      30.334     0.000 -30.334  -0.000  -0.000   0.000
  496  427  426  433        3      30.334     0.000 -30.334  -0.000  -0.000   0.000
  496  427  498  280        3      30.334     0.000 -30.334  -0.000  -0.000   0.000
  496  427  498  435        3      30.334     0.000 -30.334  -0.000  -0.000   0.000
  496  429  428  425        3      30.334     0.000 -30.334  -0.000  -0.000   0.000
  496  429  428  431        3      30.334     0.000 -30.334  -0.000  -0.000   0.000
  496  429  430  495        3      30.334     0.000 -30.334  -0.000  -0.000   0.000
  497  281  280  279        3      30.334     0.000 -30.334  -0.000  -0.000   0.000
  497  281  282  283        3      30.334     0.000 -30.334  -0.000  -0.000   0.000
  497  285  284  283        3      30.334     0.000 -30.334  -0.000  -0.000   0.000
  497  285  284  494        3      30.334     0.000 -30.334  -0.000  -0.000   0.000
  497  285  286  287        3      30.334     0.000 -30.334  -0.000  -0.000   0.000
  497  289  288  287        3      30.334     0.000 -30.334  -0.000  -0.000   0.000
  497  289  288  290        3      30.334     0.000 -30.334  -0.000  -0.000   0.000
  497  289  499  279        3      30.334     0.000 -30.334  -0.000  -0.000   0.000
  498  280  279  278        3      30.334     0.000 -30.334  -0.000  -0.000   0.000
  498  280  281  282        3      30.334     0.000 -30.334  -0.000  -0.000   0.000
  498  280  281  497        3      30.334     0.000 -30.334  -0.000  -0.000   0.000
  498  427  426  425        3      30.334     0.000 -30.334  -0.000  -0.000   0.000
  498  427  426  433        3      30.334     0.000 -30.334  -0.000  -0.000   0.000
  498  427  496  282        3      30.334     0.000 -30.334  -0.000  -0.000   0.000
  498  427  496  429        3      30.334     0.000 -30.334  -0.000  -0.000   0.000
  498  435  434  433        3      30.334     0.000 -30.334  -0.000  -0.000   0.000
  498  435  434  436        3      30.334     0.000 -30.334  -0.000  -0.000   0.000
  498  435  500  278        3      30.334     0.000 -30.334  -0.000  -0.000   0.000
  498  435  500  438        3      30.334     0.000 -30.334  -0.000  -0.000   0.000
  499  279  278  277        3      30.334     0.000 -30.334  -0.000  -0.000   0.000
  499  279  278  500        3      30.334     0.000 -30.334  -0.000  -0.000   0.000
  499  279  280  281        3      30.334     0.000 -30.334  -0.000  -0.000   0.000
  499  279  280  498        3      30.334     0.000 -30.334  -0.000  -0.000   0.000
  499  289  288  287        3      30.334     0.000 -30.334  -0.000  -0.000   0.000
  499  289  497  281        3      30.334     0.000 -30.334  -0.000  -0.000   0.000
  499  289  497  285        3      30.334     0.000 -30.334  -0.000  -0.000   0.000
  499  505  276  275        3      30.334     0.000 -30.334  -0.000  -0.000   0.000
  499  505  276  277        3      30.334     0.000 -30.334  -0.000  -0.000   0.000
  500  278  277  276        3      30.334     0.000 -30.334  -0.000  -0.000   0.000
  500  278  277  501        3      30.334     0.000 -30.334  -0.000  -0.000   0.000
  500  278  279  280        3      30.334     0.000 -30.334  -0.000  -0.000   0.000
  500  435  498  280        3      30.334     0.000 -30.334  -0.000  -0.000   0.000
  500  438  439  440        3      30.334     0.000 -30.334  -0.000  -0.000   0.000
  500  438  439  501        3      30.334     0.000 -30.334  -0.000  -0.000   0.000
  501  277  278  279        3      30.334     0.000 -30.334  -0.000  -0.000   0.000
  501  502  506  275        3      30.334     0.000 -30.334  -0.000  -0.000   0.000
  502  501  277  276        3      30.334     0.000 -30.334  -0.000  -0.000   0.000
  502  501  277  278        3      30.334     0.000 -30.334  -0.000  -0.000   0.000
  502  501  439  438        3      30.334     0.000 -30.334  -0.000  -0.000   0.000
  502  501  439  440        3      30.334     0.000 -30.334  -0.000  -0.000   0.000
  502  503  562  227        3      30.334     0.000 -30.334  -0.000  -0.000   0.000
  502  503  562  440        3      30.334     0.000 -30.334  -0.000  -0.000   0.000
  502  506  275  274        3      30.334     0.000 -30.334  -0.000  -0.000   0.000
  502  506  275  276        3      30.334     0.000 -30.334  -0.000  -0.000   0.000
  502  506  509  272        3      30.334     0.000 -30.334  -0.000  -0.000   0.000
  503  502  501  277        3      30.334     0.000 -30.334  -0.000  -0.000   0.000
  503  502  501  439        3      30.334     0.000 -30.334  -0.000  -0.000   0.000
  503  502  506  275        3      30.334     0.000 -30.334  -0.000  -0.000   0.000
  503  504  510  268        3      30.334     0.000 -30.334  -0.000  -0.000   0.000
  503  504  561  228        3      30.334     0.000 -30.334  -0.000  -0.000   0.000
  503  562  227  226        3      30.334     0.000 -30.334  -0.000  -0.000   0.000
  503  562  227  228        3      30.334     0.000 -30.334  -0.000  -0.000   0.000
  503  562  440  439        3      30.334     0.000 -30.334  -0.000  -0.000   0.000
  503  562  440  563        3      30.334     0.000 -30.334  -0.000  -0.000   0.000
  504  503  502  501        3      30.334     0.000 -30.334  -0.000  -0.000   0.000
  504  503  502  506        3      30.334     0.000 -30.334  -0.000  -0.000   0.000
  504  503  562  227        3      30.334     0.000 -30.334  -0.000  -0.000   0.000
  504  503  562  440        3      30.334     0.000 -30.334  -0.000  -0.000   0.000
  504  510  268  266        3      30.334     0.000 -30.334  -0.000  -0.000   0.000
  504  510  268  269        3      30.334     0.000 -30.334  -0.000  -0.000   0.000
  504  510  509  272        3      30.334     0.000 -30.334  -0.000  -0.000   0.000
  504  510  509  506        3      30.334     0.000 -30.334  -0.000  -0.000   0.000
  504  561  228  227        3      30.334     0.000 -30.334  -0.000  -0.000   0.000
  504  561  228  229        3      30.334     0.000 -30.334  -0.000  -0.000   0.000
  504  561  267  266        3      30.334     0.000 -30.334  -0.000  -0.000   0.000
  505  276  275  274        3      30.334     0.000 -30.334  -0.000  -0.000   0.000
  505  276  275  506        3      30.334     0.000 -30.334  -0.000  -0.000   0.000
  505  276  277  278        3      30.334     0.000 -30.334  -0.000  -0.000   0.000
  505  276  277  501        3      30.334     0.000 -30.334  -0.000  -0.000   0.000
  505  491  290  288        3      30.334     0.000 -30.334  -0.000  -0.000   0.000
  505  491  290  291        3      30.334     0.000 -30.334  -0.000  -0.000   0.000
  505  491  507  274        3      30.334     0.000 -30.334  -0.000  -0.000   0.000
  505  491  507  338        3      30.334     0.000 -30.334  -0.000  -0.000   0.000
  505  499  279  278        3      30.334     0.000 -30.334  -0.000  -0.000   0.000
  505  499  279  280        3      30.334     0.000 -30.334  -0.000  -0.000   0.000
  505  499  289  288        3      30.334     0.000 -30.334  -0.000  -0.000   0.000
  505  499  289  497        3      30.334     0.000 -30.334  -0.000  -0.000   0.000
  506  509  510  268        3      30.334     0.000 -30.334  -0.000  -0.000   0.000
  507  274  273  272        3      30.334     0.000 -30.334  -0.000  -0.000   0.000
  507  274  275  276        3      30.334     0.000 -30.334  -0.000  -0.000   0.000
  507  274  275  506        3      30.334     0.000 -30.334  -0.000  -0.000   0.000
  507  338  337  334        3      30.334     0.000 -30.334  -0.000  -0.000   0.000
  507  338  490  291        3      30.334     0.000 -30.334  -0.000  -0.000   0.000
  507  338  490  336        3      30.334     0.000 -30.334  -0.000  -0.000   0.000
  507  491  290  291        3      30.334     0.000 -30.334  -0.000  -0.000   0.000
  507  491  505  276        3      30.334     0.000 -30.334  -0.000  -0.000   0.000
  507  491  505  499        3      30.334     0.000 -30.334  -0.000  -0.000   0.000
  508  273  272  271        3      30.334     0.000 -30.334  -0.000  -0.000   0.000
  508  273  272  509        3      30.334     0.000 -30.334  -0.000  -0.000   0.000
  508  273  274  275        3      30.334     0.000 -30.334  -0.000  -0.000   0.000
  508  273  274  507        3      30.334     0.000 -30.334  -0.000  -0.000   0.000
  508  333  332  331        3      30.334     0.000 -30.334  -0.000  -0.000   0.000
  508  333  332  704        3      30.334     0.000 -30.334  -0.000  -0.000   0.000
  508  333  705    1        3      30.334     0.000 -30.334  -0.000  -0.000   0.000
  508  337  334  331        3      30.334     0.000 -30.334  -0.000  -0.000   0.000
  508  337  334  335        3      30.334     0.000 -30.334  -0.000  -0.000   0.000
  508  337  338  490        3      30.334     0.000 -30.334  -0.000  -0.000   0.000
  508  337  338  507        3      30.334     0.000 -30.334  -0.000  -0.000   0.000
  509  272  271  269        3      30.334     0.000 -30.334  -0.000  -0.000   0.000
  509  272  271  705        3      30.334     0.000 -30.334  -0.000  -0.000   0.000
  509  272  273  274        3      30.334     0.000 -30.334  -0.000  -0.000   0.000
  509  506  275  274        3      30.334     0.000 -30.334  -0.000  -0.000   0.000
  509  506  275  276        3      30.334     0.000 -30.334  -0.000  -0.000   0.000
  509  506  502  501        3      30.334     0.000 -30.334  -0.000  -0.000   0.000
  509  506  502  503        3      30.334     0.000 -30.334  -0.000  -0.000   0.000
  509  510  268  266        3      30.334     0.000 -30.334  -0.000  -0.000   0.000
  509  510  268  269        3      30.334     0.000 -30.334  -0.000  -0.000   0.000
  509  510  504  503        3      30.334     0.000 -30.334  -0.000  -0.000   0.000
  510  268  266  265        3      30.334     0.000 -30.334  -0.000  -0.000   0.000
  510  268  269  270        3      30.334     0.000 -30.334  -0.000  -0.000   0.000
  510  268  269  271        3      30.334     0.000 -30.334  -0.000  -0.000   0.000
  510  504  503  502        3      30.334     0.000 -30.334  -0.000  -0.000   0.000
  510  504  503  562        3      30.334     0.000 -30.334  -0.000  -0.000   0.000
  510  504  561  228        3      30.334     0.000 -30.334  -0.000  -0.000   0.000
  510  509  272  271        3      30.334     0.000 -30.334  -0.000  -0.000   0.000
  510  509  272  273        3      30.334     0.000 -30.334  -0.000  -0.000   0.000
  510  509  506  275        3      30.334     0.000 -30.334  -0.000  -0.000   0.000
  510  509  506  502        3      30.334     0.000 -30.334  -0.000  -0.000   0.000
  511  265  264  557        3      30.334     0.000 -30.334  -0.000  -0.000   0.000
  511  265  266  268        3      30.334     0.000 -30.334  -0.000  -0.000   0.000
  511  270  269  268        3      30.334     0.000 -30.334  -0.000  -0.000   0.000
  511  270  706    1        3      30.334     0.000 -30.334  -0.000  -0.000   0.000
  511  512  513  514        3      30.334     0.000 -30.334  -0.000  -0.000   0.000
  511  512  513  557        3      30.334     0.000 -30.334  -0.000  -0.000   0.000
  511  512  555  516        3      30.334     0.000 -30.334  -0.000  -0.000   0.000
  511  512  555  556        3      30.334     0.000 -30.334  -0.000  -0.000   0.000
  512  513  514  554        3      30.334     0.000 -30.334  -0.000  -0.000   0.000
  512  513  557  558        3      30.334     0.000 -30.334  -0.000  -0.000   0.000
  513  514  554  585        3      30.334     0.000 -30.334  -0.000  -0.000   0.000
  513  557  558  559        3      30.334     0.000 -30.334  -0.000  -0.000   0.000
  513  557  558  585        3      30.334     0.000 -30.334  -0.000  -0.000   0.000
  514  513  557  558        3      30.334     0.000 -30.334  -0.000  -0.000   0.000
  514  554  585  558        3      30.334     0.000 -30.334  -0.000  -0.000   0.000
  515  514  513  512        3      30.334     0.000 -30.334  -0.000  -0.000   0.000
  515  514  513  557        3      30.334     0.000 -30.334  -0.000  -0.000   0.000
  515  514  554  585        3      30.334     0.000 -30.334  -0.000  -0.000   0.000
  515  516  555  512        3      30.334     0.000 -30.334  -0.000  -0.000   0.000
  515  553  527  526        3      30.334     0.000 -30.334  -0.000  -0.000   0.000
  515  553  527  587        3      30.334     0.000 -30.334  -0.000  -0.000   0.000
  515  553  530  524        3      30.334     0.000 -30.334  -0.000  -0.000   0.000
  515  553  530  552        3      30.334     0.000 -30.334  -0.000  -0.000   0.000
  516  515  514  513        3      30.334     0.000 -30.334  -0.000  -0.000   0.000
  516  515  514  554        3      30.334     0.000 -30.334  -0.000  -0.000   0.000
  516  517  552  521        3      30.334     0.000 -30.334  -0.000  -0.000   0.000
  516  555  512  513        3      30.334     0.000 -30.334  -0.000  -0.000   0.000
  517  516  515  514        3      30.334     0.000 -30.334  -0.000  -0.000   0.000
  517  516  515  553        3      30.334     0.000 -30.334  -0.000  -0.000   0.000
  517  516  555  512        3      30.334     0.000 -30.334  -0.000  -0.000   0.000
  517  518  519  520        3      30.334     0.000 -30.334  -0.000  -0.000   0.000
  517  518  703    3        3      30.334     0.000 -30.334  -0.000  -0.000   0.000
  517  552  521  520        3      30.334     0.000 -30.334  -0.000  -0.000   0.000
  517  552  521  522        3      30.334     0.000 -30.334  -0.000  -0.000   0.000
  517  552  530  524        3      30.334     0.000 -30.334  -0.000  -0.000   0.000
  518  517  516  515        3      30.334     0.000 -30.334  -0.000  -0.000   0.000
  518  517  516  555        3      30.334     0.000 -30.334  -0.000  -0.000   0.000
  518  517  552  521        3      30.334     0.000 -30.334  -0.000  -0.000   0.000
  518  517  552  530        3      30.334     0.000 -30.334  -0.000  -0.000   0.000
  518  519  520  521        3      30.334     0.000 -30.334  -0.000  -0.000   0.000
  518  519  702    4        3      30.334     0.000 -30.334  -0.000  -0.000   0.000
  518  703    3    2        3      30.334     0.000 -30.334  -0.000  -0.000   0.000
  518  703    3    4        3      30.334     0.000 -30.334  -0.000  -0.000   0.000
  518  703  556  555        3      30.334     0.000 -30.334  -0.000  -0.000   0.000
  518  703  556  706        3      30.334     0.000 -30.334  -0.000  -0.000   0.000
  519  518  517  516        3      30.334     0.000 -30.334  -0.000  -0.000   0.000
  519  518  703    3        3      30.334     0.000 -30.334  -0.000  -0.000   0.000
  519  520  521  522        3      30.334     0.000 -30.334  -0.000  -0.000   0.000
  519  520  521  552        3      30.334     0.000 -30.334  -0.000  -0.000   0.000
  519  702    4    3        3      30.334     0.000 -30.334  -0.000  -0.000   0.000
  519  702    4    5        3      30.334     0.000 -30.334  -0.000  -0.000   0.000
  520  551  537  536        3      30.334     0.000 -30.334  -0.000  -0.000   0.000
  520  551  542  541        3      30.334     0.000 -30.334  -0.000  -0.000   0.000
  522  550  533  534        3      30.334     0.000 -30.334  -0.000  -0.000   0.000
  522  550  537  536        3      30.334     0.000 -30.334  -0.000  -0.000   0.000
  523  522  521  520        3      30.334     0.000 -30.334  -0.000  -0.000   0.000
  523  522  550  533        3      30.334     0.000 -30.334  -0.000  -0.000   0.000
  523  524  525  528        3      30.334     0.000 -30.334  -0.000  -0.000   0.000
  523  531  529  528        3      30.334     0.000 -30.334  -0.000  -0.000   0.000
  523  531  532  533        3      30.334     0.000 -30.334  -0.000  -0.000   0.000
  523  531  532  548        3      30.334     0.000 -30.334  -0.000  -0.000   0.000
  524  523  522  521        3      30.334     0.000 -30.334  -0.000  -0.000   0.000
  524  523  522  550        3      30.334     0.000 -30.334  -0.000  -0.000   0.000
  524  523  531  532        3      30.334     0.000 -30.334  -0.000  -0.000   0.000
  524  530  552  521        3      30.334     0.000 -30.334  -0.000  -0.000   0.000
  525  524  523  522        3      30.334     0.000 -30.334  -0.000  -0.000   0.000
  526  525  524  523        3      30.334     0.000 -30.334  -0.000  -0.000   0.000
  526  527  587  172        3      30.334     0.000 -30.334  -0.000  -0.000   0.000
  526  527  587  554        3      30.334     0.000 -30.334  -0.000  -0.000   0.000
  526  588  171  170        3      30.334     0.000 -30.334  -0.000  -0.000   0.000
  526  588  171  172        3      30.334     0.000 -30.334  -0.000  -0.000   0.000
  526  588  589  590        3      30.334     0.000 -30.334  -0.000  -0.000   0.000
  527  526  525  524        3      30.334     0.000 -30.334  -0.000  -0.000   0.000
  527  526  525  528        3      30.334     0.000 -30.334  -0.000  -0.000   0.000
  527  526  588  171        3      30.334     0.000 -30.334  -0.000  -0.000   0.000
  527  526  588  589        3      30.334     0.000 -30.334  -0.000  -0.000   0.000
  527  553  515  514        3      30.334     0.000 -30.334  -0.000  -0.000   0.000
  527  553  515  516        3      30.334     0.000 -30.334  -0.000  -0.000   0.000
  527  553  530  524        3      30.334     0.000 -30.334  -0.000  -0.000   0.000
  527  587  172  171        3      30.334     0.000 -30.334  -0.000  -0.000   0.000
  527  587  172  173        3      30.334     0.000 -30.334  -0.000  -0.000   0.000
  527  587  554  514        3      30.334     0.000 -30.334  -0.000  -0.000   0.000
  527  587  554  585        3      30.334     0.000 -30.334  -0.000  -0.000   0.000
  528  529  531  532        3      30.334     0.000 -30.334  -0.000  -0.000   0.000
  528  529  638  548        3      30.334     0.000 -30.334  -0.000  -0.000   0.000
  529  528  525  524        3      30.334     0.000 -30.334  -0.000  -0.000   0.000
  529  528  525  526        3      30.334     0.000 -30.334  -0.000  -0.000   0.000
  529  528  636  160        3      30.334     0.000 -30.334  -0.000  -0.000   0.000
  529  528  636  589        3      30.334     0.000 -30.334  -0.000  -0.000   0.000
  529  531  523  522        3      30.334     0.000 -30.334  -0.000  -0.000   0.000
  529  531  523  524        3      30.334     0.000 -30.334  -0.000  -0.000   0.000
  529  531  532  533        3      30.334     0.000 -30.334  -0.000  -0.000   0.000
  529  638  158  157        3       0.628     1.883   0.000  -2.510  -0.000   0.000
  529  638  158  159        3       0.628     1.883   0.000  -2.510  -0.000   0.000
  529  638  548  549        3      30.334     0.000 -30.334  -0.000  -0.000   0.000
  530  524  523  522        3      30.334     0.000 -30.334  -0.000  -0.000   0.000
  530  524  523  531        3      30.334     0.000 -30.334  -0.000  -0.000   0.000
  530  524  525  526        3      30.334     0.000 -30.334  -0.000  -0.000   0.000
  530  524  525  528        3      30.334     0.000 -30.334  -0.000  -0.000   0.000
  530  552  517  516        3      30.334     0.000 -30.334  -0.000  -0.000   0.000
  530  552  521  520        3      30.334     0.000 -30.334  -0.000  -0.000   0.000
  530  552  521  522        3      30.334     0.000 -30.334  -0.000  -0.000   0.000
  530  553  515  514        3      30.334     0.000 -30.334  -0.000  -0.000   0.000
  530  553  515  516        3      30.334     0.000 -30.334  -0.000  -0.000   0.000
  530  553  527  526        3      30.334     0.000 -30.334  -0.000  -0.000   0.000
  530  553  527  587        3      30.334     0.000 -30.334  -0.000  -0.000   0.000
  531  523  522  521        3      30.334     0.000 -30.334  -0.000  -0.000   0.000
  531  523  522  550        3      30.334     0.000 -30.334  -0.000  -0.000   0.000
  531  523  524  525        3      30.334     0.000 -30.334  -0.000  -0.000   0.000
  531  529  528  525        3      30.334     0.000 -30.334  -0.000  -0.000   0.000
  531  529  528  636        3      30.334     0.000 -30.334  -0.000  -0.000   0.000
  531  529  638  158        3       6.234     0.000  -6.234  -0.000  -0.000   0.000
  531  532  533  534        3      30.334     0.000 -30.334  -0.000  -0.000   0.000
  531  532  533  550        3      30.334     0.000 -30.334  -0.000  -0.000   0.000
  531  532  548  549        3      30.334     0.000 -30.334  -0.000  -0.000   0.000
  532  531  523  522        3      30.334     0.000 -30.334  -0.000  -0.000   0.000
  532  533  534  535        3      30.334     0.000 -30.334  -0.000  -0.000   0.000
  532  533  550  522        3      30.334     0.000 -30.334  -0.000  -0.000   0.000
  533  534  535  536        3      30.334     0.000 -30.334  -0.000  -0.000   0.000
  533  534  643   94        3      30.334     0.000 -30.334  -0.000  -0.000   0.000
  533  550  522  521        3      30.334     0.000 -30.334  -0.000  -0.000   0.000
  533  550  537  536        3      30.334     0.000 -30.334  -0.000  -0.000   0.000
  534  535  536  538        3      30.334     0.000 -30.334  -0.000  -0.000   0.000
  534  535  644   93        3      30.334     0.000 -30.334  -0.000  -0.000   0.000
  534  643   94   93        3      30.334     0.000 -30.334  -0.000  -0.000   0.000
  534  643   94   95        3      30.334     0.000 -30.334  -0.000  -0.000   0.000
  535  534  643   94        3      30.334     0.000 -30.334  -0.000  -0.000   0.000
  535  536  538  541        3      30.334     0.000 -30.334  -0.000  -0.000   0.000
  535  644   93   91        3      30.334     0.000 -30.334  -0.000  -0.000   0.000
  535  644   93   94        3      30.334     0.000 -30.334  -0.000  -0.000   0.000
  535  644  540  677        3      30.334     0.000 -30.334  -0.000  -0.000   0.000
  536  535  644   93        3      30.334     0.000 -30.334  -0.000  -0.000   0.000
  536  538  541  544        3      30.334     0.000 -30.334  -0.000  -0.000   0.000
  537  536  535  534        3      30.334     0.000 -30.334  -0.000  -0.000   0.000
  537  536  538  541        3      30.334     0.000 -30.334  -0.000  -0.000   0.000
  537  550  522  521        3      30.334     0.000 -30.334  -0.000  -0.000   0.000
  537  550  522  523        3      30.334     0.000 -30.334  -0.000  -0.000   0.000
  537  550  533  532        3      30.334     0.000 -30.334  -0.000  -0.000   0.000
  537  550  533  534        3      30.334     0.000 -30.334  -0.000  -0.000   0.000
  537  551  520  519        3      30.334     0.000 -30.334  -0.000  -0.000   0.000
  537  551  520  521        3      30.334     0.000 -30.334  -0.000  -0.000   0.000
  537  551  542  541        3      30.334     0.000 -30.334  -0.000  -0.000   0.000
  537  551  542  543        3      30.334     0.000 -30.334  -0.000  -0.000   0.000
  538  539  540  677        3      30.334     0.000 -30.334  -0.000  -0.000   0.000
  538  541  544  545        3      30.334     0.000 -30.334  -0.000  -0.000   0.000
  539  538  536  535        3      30.334     0.000 -30.334  -0.000  -0.000   0.000
  539  538  536  537        3      30.334     0.000 -30.334  -0.000  -0.000   0.000
  539  538  541  542        3      30.334     0.000 -30.334  -0.000  -0.000   0.000
  539  538  541  544        3      30.334     0.000 -30.334  -0.000  -0.000   0.000
  539  540  644   93        3      30.334     0.000 -30.334  -0.000  -0.000   0.000
  539  540  644  535        3      30.334     0.000 -30.334  -0.000  -0.000   0.000
  539  540  677   60        3      30.334     0.000 -30.334  -0.000  -0.000   0.000
  539  540  677   92        3      30.334     0.000 -30.334  -0.000  -0.000   0.000
  539  678   59   58        3      30.334     0.000 -30.334  -0.000  -0.000   0.000
  539  678   59   60        3      30.334     0.000 -30.334  -0.000  -0.000   0.000
  539  678  547  544        3      30.334     0.000 -30.334  -0.000  -0.000   0.000
  540  539  538  536        3      30.334     0.000 -30.334  -0.000  -0.000   0.000
  540  539  538  541        3      30.334     0.000 -30.334  -0.000  -0.000   0.000
  540  644   93   91        3      30.334     0.000 -30.334  -0.000  -0.000   0.000
  540  644   93   94        3      30.334     0.000 -30.334  -0.000  -0.000   0.000
  540  644  535  534        3      30.334     0.000 -30.334  -0.000  -0.000   0.000
  540  644  535  536        3      30.334     0.000 -30.334  -0.000  -0.000   0.000
  540  677   60   59        3      30.334     0.000 -30.334  -0.000  -0.000   0.000
  540  677   60   61        3      30.334     0.000 -30.334  -0.000  -0.000   0.000
  540  677   92   91        3      30.334     0.000 -30.334  -0.000  -0.000   0.000
  542  541  538  536        3      30.334     0.000 -30.334  -0.000  -0.000   0.000
  542  541  544  545        3      30.334     0.000 -30.334  -0.000  -0.000   0.000
  542  543  700    6        3      30.334     0.000 -30.334  -0.000  -0.000   0.000
  542  543  700  545        3      30.334     0.000 -30.334  -0.000  -0.000   0.000
  542  543  702    4        3      30.334     0.000 -30.334  -0.000  -0.000   0.000
  542  543  702  519        3      30.334     0.000 -30.334  -0.000  -0.000   0.000
  542  551  520  519        3      30.334     0.000 -30.334  -0.000  -0.000   0.000
  542  551  520  521        3      30.334     0.000 -30.334  -0.000  -0.000   0.000
  542  551  537  536        3      30.334     0.000 -30.334  -0.000  -0.000   0.000
  542  551  537  550        3      30.334     0.000 -30.334  -0.000  -0.000   0.000
  543  542  541  538        3      30.334     0.000 -30.334  -0.000  -0.000   0.000
  543  542  541  544        3      30.334     0.000 -30.334  -0.000  -0.000   0.000
  543  542  551  520        3      30.334     0.000 -30.334  -0.000  -0.000   0.000
  543  700    6    5        3      30.334     0.000 -30.334  -0.000  -0.000   0.000
  543  700    6    7        3      30.334     0.000 -30.334  -0.000  -0.000   0.000
  543  700  545  544        3      30.334     0.000 -30.334  -0.000  -0.000   0.000
  543  702    4    3        3      30.334     0.000 -30.334  -0.000  -0.000   0.000
  543  702    4    5        3      30.334     0.000 -30.334  -0.000  -0.000   0.000
  543  702  519  518        3      30.334     0.000 -30.334  -0.000  -0.000   0.000
  543  702  519  520        3      30.334     0.000 -30.334  -0.000  -0.000   0.000
  545  546  699  697        3      30.334     0.000 -30.334  -0.000  -0.000   0.000
  546  545  544  541        3      30.334     0.000 -30.334  -0.000  -0.000   0.000
  546  545  700    6        3      30.334     0.000 -30.334  -0.000  -0.000   0.000
  546  545  700  543        3      30.334     0.000 -30.334  -0.000  -0.000   0.000
  546  680   56   55        3       0.628     1.883   0.000  -2.510  -0.000   0.000
  546  680   56   57        3       0.628     1.883   0.000  -2.510  -0.000   0.000
  546  680  547  678        3       9.079     0.000  -9.079  -0.000  -0.000   0.000
  546  699    7    6        3      30.334     0.000 -30.334  -0.000  -0.000   0.000
  546  699    7    8        3      30.334     0.000 -30.334  -0.000  -0.000   0.000
  546  699  697    9        3      14.355     0.000 -14.355  -0.000  -0.000   0.000
  546  699  697  695        3      14.355     0.000 -14.355  -0.000  -0.000   0.000
  547  544  541  538        3      30.334     0.000 -30.334  -0.000  -0.000   0.000
  547  544  541  542        3      30.334     0.000 -30.334  -0.000  -0.000   0.000
  547  544  545  700        3      30.334     0.000 -30.334  -0.000  -0.000   0.000
  547  678   59   58        3      30.334     0.000 -30.334  -0.000  -0.000   0.000
  547  678   59   60        3      30.334     0.000 -30.334  -0.000  -0.000   0.000
  547  678  539  538        3      30.334     0.000 -30.334  -0.000  -0.000   0.000
  547  678  539  540        3      30.334     0.000 -30.334  -0.000  -0.000   0.000
  547  680   56   55        3       0.628     1.883   0.000  -2.510  -0.000   0.000
  547  680   56   57        3       0.628     1.883   0.000  -2.510  -0.000   0.000
  548  532  533  534        3      30.334     0.000 -30.334  -0.000  -0.000   0.000
  548  532  533  550        3      30.334     0.000 -30.334  -0.000  -0.000   0.000
  548  549  643   94        3      30.334     0.000 -30.334  -0.000  -0.000   0.000
  548  549  643  534        3      30.334     0.000 -30.334  -0.000  -0.000   0.000
  549  548  532  533        3      30.334     0.000 -30.334  -0.000  -0.000   0.000
  549  642   96   95        3      30.334     0.000 -30.334  -0.000  -0.000   0.000
  549  643   94   93        3      30.334     0.000 -30.334  -0.000  -0.000   0.000
  549  643   94   95        3      30.334     0.000 -30.334  -0.000  -0.000   0.000
  549  643  534  533        3      30.334     0.000 -30.334  -0.000  -0.000   0.000
  549  643  534  535        3      30.334     0.000 -30.334  -0.000  -0.000   0.000
  550  522  521  520        3      30.334     0.000 -30.334  -0.000  -0.000   0.000
  550  533  534  535        3      30.334     0.000 -30.334  -0.000  -0.000   0.000
  550  537  536  535        3      30.334     0.000 -30.334  -0.000  -0.000   0.000
  550  537  536  538        3      30.334     0.000 -30.334  -0.000  -0.000   0.000
  550  537  551  520        3      30.334     0.000 -30.334  -0.000  -0.000   0.000
  551  520  519  518        3      30.334     0.000 -30.334  -0.000  -0.000   0.000
  551  520  519  702        3      30.334     0.000 -30.334  -0.000  -0.000   0.000
  551  520  521  522        3      30.334     0.000 -30.334  -0.000  -0.000   0.000
  551  520  521  552        3      30.334     0.000 -30.334  -0.000  -0.000   0.000
  551  537  536  535        3      30.334     0.000 -30.334  -0.000  -0.000   0.000
  551  537  536  538        3      30.334     0.000 -30.334  -0.000  -0.000   0.000
  551  537  550  522        3      30.334     0.000 -30.334  -0.000  -0.000   0.000
  551  537  550  533        3      30.334     0.000 -30.334  -0.000  -0.000   0.000
  551  542  541  538        3      30.334     0.000 -30.334  -0.000  -0.000   0.000
  551  542  541  544        3      30.334     0.000 -30.334  -0.000  -0.000   0.000
  551  542  543  702        3      30.334     0.000 -30.334  -0.000  -0.000   0.000
  552  517  516  515        3      30.334     0.000 -30.334  -0.000  -0.000   0.000
  552  517  516  555        3      30.334     0.000 -30.334  -0.000  -0.000   0.000
  552  517  518  519        3      30.334     0.000 -30.334  -0.000  -0.000   0.000
  552  521  522  523        3      30.334     0.000 -30.334  -0.000  -0.000   0.000
  552  521  522  550        3      30.334     0.000 -30.334  -0.000  -0.000   0.000
  552  530  524  523        3      30.334     0.000 -30.334  -0.000  -0.000   0.000
  552  530  524  525        3      30.334     0.000 -30.334  -0.000  -0.000   0.000
  552  530  553  527        3      30.334     0.000 -30.334  -0.000  -0.000   0.000
  553  515  514  513        3      30.334     0.000 -30.334  -0.000  -0.000   0.000
  553  515  514  554        3      30.334     0.000 -30.334  -0.000  -0.000   0.000
  553  515  516  555        3      30.334     0.000 -30.334  -0.000  -0.000   0.000
  553  527  526  525        3      30.334     0.000 -30.334  -0.000  -0.000   0.000
  553  527  526  588        3      30.334     0.000 -30.334  -0.000  -0.000   0.000
  553  527  587  172        3      30.334     0.000 -30.334  -0.000  -0.000   0.000
  553  527  587  554        3      30.334     0.000 -30.334  -0.000  -0.000   0.000
  553  530  524  523        3      30.334     0.000 -30.334  -0.000  -0.000   0.000
  553  530  524  525        3      30.334     0.000 -30.334  -0.000  -0.000   0.000
  553  530  552  517        3      30.334     0.000 -30.334  -0.000  -0.000   0.000
  553  530  552  521        3      30.334     0.000 -30.334  -0.000  -0.000   0.000
  554  514  513  557        3      30.334     0.000 -30.334  -0.000  -0.000   0.000
  554  585  558  557        3      30.334     0.000 -30.334  -0.000  -0.000   0.000
  554  585  558  559        3      30.334     0.000 -30.334  -0.000  -0.000   0.000
  555  512  513  514        3      30.334     0.000 -30.334  -0.000  -0.000   0.000
  555  512  513  557        3      30.334     0.000 -30.334  -0.000  -0.000   0.000
  555  516  515  514        3      30.334     0.000 -30.334  -0.000  -0.000   0.000
  556  555  512  513        3      30.334     0.000 -30.334  -0.000  -0.000   0.000
  556  555  516  515        3      30.334     0.000 -30.334  -0.000  -0.000   0.000
  556  555  516  517        3      30.334     0.000 -30.334  -0.000  -0.000   0.000
  556  703    3    2        3      30.334     0.000 -30.334  -0.000  -0.000   0.000
  556  703    3    4        3      30.334     0.000 -30.334  -0.000  -0.000   0.000
  556  703  518  517        3      30.334     0.000 -30.334  -0.000  -0.000   0.000
  556  703  518  519        3      30.334     0.000 -30.334  -0.000  -0.000   0.000
  556  706    1    2        3      30.334     0.000 -30.334  -0.000  -0.000   0.000
  556  706    1  705        3      30.334     0.000 -30.334  -0.000  -0.000   0.000
  556  706  270  269        3      30.334     0.000 -30.334  -0.000  -0.000   0.000
  556  706  270  511        3      30.334     0.000 -30.334  -0.000  -0.000   0.000
  557  558  559  584        3      30.334     0.000 -30.334  -0.000  -0.000   0.000
  558  559  584  256        3      30.334     0.000 -30.334  -0.000  -0.000   0.000
  559  584  256  257        3      30.334     0.000 -30.334  -0.000  -0.000   0.000
  560  231  229  228        3      30.334     0.000 -30.334  -0.000  -0.000   0.000
  560  262  261  232        3      14.355     0.000 -14.355  -0.000  -0.000   0.000
  560  262  261  257        3      14.355     0.000 -14.355  -0.000  -0.000   0.000
  560  262  263  559        3       0.628     1.883   0.000  -2.510  -0.000   0.000
  560  267  266  265        3      30.334     0.000 -30.334  -0.000  -0.000   0.000
  560  267  266  268        3      30.334     0.000 -30.334  -0.000  -0.000   0.000
  560  267  561  228        3      30.334     0.000 -30.334  -0.000  -0.000   0.000
  560  267  561  504        3      30.334     0.000 -30.334  -0.000  -0.000   0.000
  561  228  227  226        3      30.334     0.000 -30.334  -0.000  -0.000   0.000
  561  228  227  562        3      30.334     0.000 -30.334  -0.000  -0.000   0.000
  561  228  229  231        3      30.334     0.000 -30.334  -0.000  -0.000   0.000
  561  267  266  265        3      30.334     0.000 -30.334  -0.000  -0.000   0.000
  561  267  266  268        3      30.334     0.000 -30.334  -0.000  -0.000   0.000
  561  267  560  231        3      30.334     0.000 -30.334  -0.000  -0.000   0.000
  561  267  560  262        3      30.334     0.000 -30.334  -0.000  -0.000   0.000
  561  504  503  502        3      30.334     0.000 -30.334  -0.000  -0.000   0.000
  561  504  503  562        3      30.334     0.000 -30.334  -0.000  -0.000   0.000
  561  504  510  268        3      30.334     0.000 -30.334  -0.000  -0.000   0.000
  561  504  510  509        3      30.334     0.000 -30.334  -0.000  -0.000   0.000
  562  227  226  225        3      30.334     0.000 -30.334  -0.000  -0.000   0.000
  562  227  228  229        3      30.334     0.000 -30.334  -0.000  -0.000   0.000
  562  440  439  438        3      30.334     0.000 -30.334  -0.000  -0.000   0.000
  562  440  439  501        3      30.334     0.000 -30.334  -0.000  -0.000   0.000
  562  440  563  225        3      30.334     0.000 -30.334  -0.000  -0.000   0.000
  562  440  563  441        3      30.334     0.000 -30.334  -0.000  -0.000   0.000
  562  503  502  501        3      30.334     0.000 -30.334  -0.000  -0.000   0.000
  562  503  502  506        3      30.334     0.000 -30.334  -0.000  -0.000   0.000
  563  225  224  223        3      30.334     0.000 -30.334  -0.000  -0.000   0.000
  563  225  224  564        3      30.334     0.000 -30.334  -0.000  -0.000   0.000
  563  225  226  227        3      30.334     0.000 -30.334  -0.000  -0.000   0.000
  563  440  439  438        3      30.334     0.000 -30.334  -0.000  -0.000   0.000
  563  440  439  501        3      30.334     0.000 -30.334  -0.000  -0.000   0.000
  563  440  562  227        3      30.334     0.000 -30.334  -0.000  -0.000   0.000
  563  441  437  436        3      30.334     0.000 -30.334  -0.000  -0.000   0.000
  563  441  437  438        3      30.334     0.000 -30.334  -0.000  -0.000   0.000
  563  441  442  417        3      30.334     0.000 -30.334  -0.000  -0.000   0.000
  564  224  223  222        3      30.334     0.000 -30.334  -0.000  -0.000   0.000
  564  224  225  226        3      30.334     0.000 -30.334  -0.000  -0.000   0.000
  564  401  400  399        3      30.334     0.000 -30.334  -0.000  -0.000   0.000
  564  401  400  416        3      30.334     0.000 -30.334  -0.000  -0.000   0.000
  564  401  402  403        3      30.334     0.000 -30.334  -0.000  -0.000   0.000
  564  401  402  568        3      30.334     0.000 -30.334  -0.000  -0.000   0.000
  564  442  417  399        3      30.334     0.000 -30.334  -0.000  -0.000   0.000
  564  442  417  418        3      30.334     0.000 -30.334  -0.000  -0.000   0.000
  564  442  441  437        3      30.334     0.000 -30.334  -0.000  -0.000   0.000
  564  442  441  563        3      30.334     0.000 -30.334  -0.000  -0.000   0.000
  565  223  222  221        3      30.334     0.000 -30.334  -0.000  -0.000   0.000
  565  223  222  568        3      30.334     0.000 -30.334  -0.000  -0.000   0.000
  565  223  224  225        3      30.334     0.000 -30.334  -0.000  -0.000   0.000
  565  223  224  564        3      30.334     0.000 -30.334  -0.000  -0.000   0.000
  565  226  225  563        3      30.334     0.000 -30.334  -0.000  -0.000   0.000
  565  226  227  228        3      30.334     0.000 -30.334  -0.000  -0.000   0.000
  565  226  227  562        3      30.334     0.000 -30.334  -0.000  -0.000   0.000
  565  230  229  228        3      30.334     0.000 -30.334  -0.000  -0.000   0.000
  565  230  229  231        3      30.334     0.000 -30.334  -0.000  -0.000   0.000
  565  230  566  221        3      29.288     0.000 -29.288  -0.000  -0.000   0.000
  565  230  566  234        3      29.288     0.000 -29.288  -0.000  -0.000   0.000
  566  221  220  219        3      30.334     0.000 -30.334  -0.000  -0.000   0.000
  566  221  220  567        3      30.334     0.000 -30.334  -0.000  -0.000   0.000
  566  221  222  223        3      30.334     0.000 -30.334  -0.000  -0.000   0.000
  566  230  229  228        3      30.334     0.000 -30.334  -0.000  -0.000   0.000
  566  230  229  231        3      30.334     0.000 -30.334  -0.000  -0.000   0.000
  566  230  565  223        3      30.334     0.000 -30.334  -0.000  -0.000   0.000
  566  230  565  226        3      30.334     0.000 -30.334  -0.000  -0.000   0.000
  566  234  233  232        3      30.334     0.000 -30.334  -0.000  -0.000   0.000
  566  234  233  260        3      30.334     0.000 -30.334  -0.000  -0.000   0.000
  566  234  235  236        3      30.334     0.000 -30.334  -0.000  -0.000   0.000
  566  234  235  259        3      30.334     0.000 -30.334  -0.000  -0.000   0.000
  567  220  219  218        3      30.334     0.000 -30.334  -0.000  -0.000   0.000
  567  220  221  222        3      30.334     0.000 -30.334  -0.000  -0.000   0.000
  567  259  235  236        3      30.334     0.000 -30.334  -0.000  -0.000   0.000
  567  259  238  237        3      30.334     0.000 -30.334  -0.000  -0.000   0.000
  567  259  238  239        3      30.334     0.000 -30.334  -0.000  -0.000   0.000
  567  570  217  216        3      30.334     0.000 -30.334  -0.000  -0.000   0.000
  567  570  217  218        3      30.334     0.000 -30.334  -0.000  -0.000   0.000
  567  570  243  240        3      30.334     0.000 -30.334  -0.000  -0.000   0.000
  567  570  243  244        3      30.334     0.000 -30.334  -0.000  -0.000   0.000
  568  219  218  217        3      30.334     0.000 -30.334  -0.000  -0.000   0.000
  568  219  220  567        3      30.334     0.000 -30.334  -0.000  -0.000   0.000
  568  222  221  566        3      30.334     0.000 -30.334  -0.000  -0.000   0.000
  568  222  223  224        3      30.334     0.000 -30.334  -0.000  -0.000   0.000
  568  402  401  400        3      30.334     0.000 -30.334  -0.000  -0.000   0.000
  568  402  403  404        3      30.334     0.000 -30.334  -0.000  -0.000   0.000
  568  402  403  569        3      30.334     0.000 -30.334  -0.000  -0.000   0.000
  569  218  217  216        3      30.334     0.000 -30.334  -0.000  -0.000   0.000
  569  218  217  570        3      30.334     0.000 -30.334  -0.000  -0.000   0.000
  569  218  219  220        3      30.334     0.000 -30.334  -0.000  -0.000   0.000
  569  218  219  568        3      30.334     0.000 -30.334  -0.000  -0.000   0.000
  569  403  402  401        3      30.334     0.000 -30.334  -0.000  -0.000   0.000
  569  403  404  405        3      30.334     0.000 -30.334  -0.000  -0.000   0.000
  569  571  215  214        3      30.334     0.000 -30.334  -0.000  -0.000   0.000
  569  571  215  216        3      30.334     0.000 -30.334  -0.000  -0.000   0.000
  569  571  406  405        3      30.334     0.000 -30.334  -0.000  -0.000   0.000
  569  571  406  407        3      30.334     0.000 -30.334  -0.000  -0.000   0.000
  570  217  216  215        3      30.334     0.000 -30.334  -0.000  -0.000   0.000
  570  217  218  219        3      30.334     0.000 -30.334  -0.000  -0.000   0.000
  570  243  240  239        3      30.334     0.000 -30.334  -0.000  -0.000   0.000
  570  243  240  241        3      30.334     0.000 -30.334  -0.000  -0.000   0.000
  570  243  244  245        3      30.334     0.000 -30.334  -0.000  -0.000   0.000
  570  567  220  219        3      30.334     0.000 -30.334  -0.000  -0.000   0.000
  570  567  220  221        3      30.334     0.000 -30.334  -0.000  -0.000   0.000
  570  567  259  235        3      30.334     0.000 -30.334  -0.000  -0.000   0.000
  570  567  259  238        3      30.334     0.000 -30.334  -0.000  -0.000   0.000
  571  215  214  213        3      30.334     0.000 -30.334  -0.000  -0.000   0.000
  571  215  216  217        3      30.334     0.000 -30.334  -0.000  -0.000   0.000
  571  406  405  404        3      30.334     0.000 -30.334  -0.000  -0.000   0.000
  571  406  405  409        3      30.334     0.000 -30.334  -0.000  -0.000   0.000
  571  406  407  408        3      30.334     0.000 -30.334  -0.000  -0.000   0.000
  571  406  407  572        3      30.334     0.000 -30.334  -0.000  -0.000   0.000
  571  569  218  217        3      30.334     0.000 -30.334  -0.000  -0.000   0.000
  571  569  218  219        3      30.334     0.000 -30.334  -0.000  -0.000   0.000
  571  569  403  402        3      30.334     0.000 -30.334  -0.000  -0.000   0.000
  571  569  403  404        3      30.334     0.000 -30.334  -0.000  -0.000   0.000
  572  214  213  212        3      18.514     1.234  -3.012 -10.711  -6.025   0.000
  572  214  215  216        3      30.334     0.000 -30.334  -0.000  -0.000   0.000
  572  214  215  571        3      30.334     0.000 -30.334  -0.000  -0.000   0.000
  572  407  406  405        3      30.334     0.000 -30.334  -0.000  -0.000   0.000
  573  572  214  213        3      30.334     0.000 -30.334  -0.000  -0.000   0.000
  573  572  214  215        3      30.334     0.000 -30.334  -0.000  -0.000   0.000
  573  572  407  406        3      30.334     0.000 -30.334  -0.000  -0.000   0.000
  573  572  407  408        3      30.334     0.000 -30.334  -0.000  -0.000   0.000
  574  212  211  210        3      30.334     0.000 -30.334  -0.000  -0.000   0.000
  574  212  211  575        3      30.334     0.000 -30.334  -0.000  -0.000   0.000
  574  212  213  214        3      18.514     1.234  -3.012 -10.711  -6.025   0.000
  574  216  215  214        3      30.334     0.000 -30.334  -0.000  -0.000   0.000
  574  216  215  571        3      30.334     0.000 -30.334  -0.000  -0.000   0.000
  574  216  217  218        3      30.334     0.000 -30.334  -0.000  -0.000   0.000
  574  216  217  570        3      30.334     0.000 -30.334  -0.000  -0.000   0.000
  574  244  243  240        3      30.334     0.000 -30.334  -0.000  -0.000   0.000
  574  244  243  570        3      30.334     0.000 -30.334  -0.000  -0.000   0.000
  574  244  245  575        3      30.334     0.000 -30.334  -0.000  -0.000   0.000
  574  244  245  576        3      30.334     0.000 -30.334  -0.000  -0.000   0.000
  575  205  203  202        3      30.334     0.000 -30.334  -0.000  -0.000   0.000
  575  205  206  207        3      30.334     0.000 -30.334  -0.000  -0.000   0.000
  575  211  212  213        3      30.334     0.000 -30.334  -0.000  -0.000   0.000
  575  245  576  202        3      30.334     0.000 -30.334  -0.000  -0.000   0.000
  575  245  576  241        3      30.334     0.000 -30.334  -0.000  -0.000   0.000
  576  202  201  200        3      30.334     0.000 -30.334  -0.000  -0.000   0.000
  576  202  201  577        3      30.334     0.000 -30.334  -0.000  -0.000   0.000
  576  202  203  205        3      30.334     0.000 -30.334  -0.000  -0.000   0.000
  576  241  240  239        3      30.334     0.000 -30.334  -0.000  -0.000   0.000
  576  241  240  243        3      30.334     0.000 -30.334  -0.000  -0.000   0.000
  576  241  242  577        3      30.334     0.000 -30.334  -0.000  -0.000   0.000
  576  245  244  243        3      30.334     0.000 -30.334  -0.000  -0.000   0.000
  576  245  575  205        3      30.334     0.000 -30.334  -0.000  -0.000   0.000
  576  245  575  211        3      30.334     0.000 -30.334  -0.000  -0.000   0.000
  578  197  198  200        3      29.288     0.000 -29.288  -0.000  -0.000   0.000
  578  248  247  249        3      30.334     0.000 -30.334  -0.000  -0.000   0.000
  578  577  201  200        3      30.334     0.000 -30.334  -0.000  -0.000   0.000
  578  577  201  202        3      30.334     0.000 -30.334  -0.000  -0.000   0.000
  578  577  242  241        3      30.334     0.000 -30.334  -0.000  -0.000   0.000
  578  577  242  246        3      30.334     0.000 -30.334  -0.000  -0.000   0.000
  579  194  192  191        3      30.334     0.000 -30.334  -0.000  -0.000   0.000
  579  194  195  197        3      30.334     0.000 -30.334  -0.000  -0.000   0.000
  579  248  247  246        3      30.334     0.000 -30.334  -0.000  -0.000   0.000
  579  248  247  249        3      30.334     0.000 -30.334  -0.000  -0.000   0.000
  579  248  578  197        3      30.334     0.000 -30.334  -0.000  -0.000   0.000
  579  248  578  577        3      30.334     0.000 -30.334  -0.000  -0.000   0.000
  579  251  250  249        3      30.334     0.000 -30.334  -0.000  -0.000   0.000
  579  251  250  581        3      30.334     0.000 -30.334  -0.000  -0.000   0.000
  579  251  580  191        3      30.334     0.000 -30.334  -0.000  -0.000   0.000
  580  181  180  179        3      30.334     0.000 -30.334  -0.000  -0.000   0.000
  580  181  182  183        3      30.334     0.000 -30.334  -0.000  -0.000   0.000
  580  181  182  188        3      30.334     0.000 -30.334  -0.000  -0.000   0.000
  580  191  189  188        3      30.334     0.000 -30.334  -0.000  -0.000   0.000
  580  191  192  194        3      30.334     0.000 -30.334  -0.000  -0.000   0.000
  580  251  250  249        3      30.334     0.000 -30.334  -0.000  -0.000   0.000
  580  251  250  581        3      30.334     0.000 -30.334  -0.000  -0.000   0.000
  580  251  579  194        3      30.334     0.000 -30.334  -0.000  -0.000   0.000
  580  251  579  248        3      30.334     0.000 -30.334  -0.000  -0.000   0.000
  581  180  179  178        3      30.334     0.000 -30.334  -0.000  -0.000   0.000
  581  180  181  182        3      29.288     0.000 -29.288  -0.000  -0.000   0.000
  581  180  181  580        3      30.334     0.000 -30.334  -0.000  -0.000   0.000
  581  250  249  247        3      30.334     0.000 -30.334  -0.000  -0.000   0.000
  581  250  249  252        3      30.334     0.000 -30.334  -0.000  -0.000   0.000
  581  253  252  237        3       0.628     1.883   0.000  -2.510  -0.000   0.000
  581  253  254  258        3       0.628     1.883   0.000  -2.510  -0.000   0.000
  582  178  177  176        3       0.628     1.883   0.000  -2.510  -0.000   0.000
  582  178  179  180        3      30.334     0.000 -30.334  -0.000  -0.000   0.000
  582  183  182  188        3       6.234     0.000  -6.234  -0.000  -0.000   0.000
  582  183  184  185        3      30.334     0.000 -30.334  -0.000  -0.000   0.000
  582  183  184  186        3       6.234     0.000  -6.234  -0.000  -0.000   0.000
  582  591  169  168        3       0.628     1.883   0.000  -2.510  -0.000   0.000
  582  591  169  170        3       0.628     1.883   0.000  -2.510  -0.000   0.000
  582  591  586  173        3      30.334     0.000 -30.334  -0.000  -0.000   0.000
  583  176  175  174        3      30.334     0.000 -30.334  -0.000  -0.000   0.000
  583  176  175  584        3      30.334     0.000 -30.334  -0.000  -0.000   0.000
  583  176  177  586        3      30.334     0.000 -30.334  -0.000  -0.000   0.000
  583  179  178  177        3      30.334     0.000 -30.334  -0.000  -0.000   0.000
  583  179  178  582        3      30.334     0.000 -30.334  -0.000  -0.000   0.000
  583  179  180  181        3      30.334     0.000 -30.334  -0.000  -0.000   0.000
  583  179  180  581        3      30.334     0.000 -30.334  -0.000  -0.000   0.000
  583  255  254  258        3      14.355     0.000 -14.355  -0.000  -0.000   0.000
  583  255  256  257        3      30.334     0.000 -30.334  -0.000  -0.000   0.000
  583  255  256  584        3      30.334     0.000 -30.334  -0.000  -0.000   0.000
  584  256  257  258        3      30.334     0.000 -30.334  -0.000  -0.000   0.000
  585  174  175  584        3      30.334     0.000 -30.334  -0.000  -0.000   0.000
  585  558  559  263        3      30.334     0.000 -30.334  -0.000  -0.000   0.000
  585  558  559  584        3      30.334     0.000 -30.334  -0.000  -0.000   0.000
  586  173  172  171        3      30.334     0.000 -30.334  -0.000  -0.000   0.000
  586  173  172  587        3      30.334     0.000 -30.334  -0.000  -0.000   0.000
  586  173  174  175        3      30.334     0.000 -30.334  -0.000  -0.000   0.000
  586  173  174  585        3      30.334     0.000 -30.334  -0.000  -0.000   0.000
  586  177  176  175        3      30.334     0.000 -30.334  -0.000  -0.000   0.000
  586  177  178  179        3       0.628     1.883   0.000  -2.510  -0.000   0.000
  586  591  169  168        3       0.628     1.883   0.000  -2.510  -0.000   0.000
  586  591  169  170        3       0.628     1.883   0.000  -2.510  -0.000   0.000
  586  591  582  183        3       0.628     1.883   0.000  -2.510  -0.000   0.000
  587  172  171  170        3      30.334     0.000 -30.334  -0.000  -0.000   0.000
  587  172  173  174        3      30.334     0.000 -30.334  -0.000  -0.000   0.000
  587  527  526  525        3      30.334     0.000 -30.334  -0.000  -0.000   0.000
  587  527  526  588        3      30.334     0.000 -30.334  -0.000  -0.000   0.000
  587  554  514  513        3      30.334     0.000 -30.334  -0.000  -0.000   0.000
  587  554  514  515        3      30.334     0.000 -30.334  -0.000  -0.000   0.000
  587  554  585  174        3      30.334     0.000 -30.334  -0.000  -0.000   0.000
  587  554  585  558        3      30.334     0.000 -30.334  -0.000  -0.000   0.000
  588  171  170  169        3      30.334     0.000 -30.334  -0.000  -0.000   0.000
  588  171  172  173        3      30.334     0.000 -30.334  -0.000  -0.000   0.000
  588  171  172  587        3      30.334     0.000 -30.334  -0.000  -0.000   0.000
  588  526  525  524        3      30.334     0.000 -30.334  -0.000  -0.000   0.000
  588  526  525  528        3      30.334     0.000 -30.334  -0.000  -0.000   0.000
  588  589  590  635        3      30.334     0.000 -30.334  -0.000  -0.000   0.000
  588  589  636  160        3      30.334     0.000 -30.334  -0.000  -0.000   0.000
  588  589  636  528        3      30.334     0.000 -30.334  -0.000  -0.000   0.000
  589  588  526  525        3      30.334     0.000 -30.334  -0.000  -0.000   0.000
  589  590  635  161        3      30.334     0.000 -30.334  -0.000  -0.000   0.000
  589  590  635  164        3      30.334     0.000 -30.334  -0.000  -0.000   0.000
  589  636  160  159        3      30.334     0.000 -30.334  -0.000  -0.000   0.000
  589  636  160  161        3      30.334     0.000 -30.334  -0.000  -0.000   0.000
  589  636  528  525        3      30.334     0.000 -30.334  -0.000  -0.000   0.000
  590  589  636  160        3      30.334     0.000 -30.334  -0.000  -0.000   0.000
  590  589  636  528        3      30.334     0.000 -30.334  -0.000  -0.000   0.000
  590  594  167  166        3      30.334     0.000 -30.334  -0.000  -0.000   0.000
  590  594  167  168        3      30.334     0.000 -30.334  -0.000  -0.000   0.000
  590  594  170  169        3      30.334     0.000 -30.334  -0.000  -0.000   0.000
  590  594  170  171        3      30.334     0.000 -30.334  -0.000  -0.000   0.000
  590  635  161  160        3      30.334     0.000 -30.334  -0.000  -0.000   0.000
  590  635  161  162        3      30.334     0.000 -30.334  -0.000  -0.000   0.000
  590  635  164  163        3      30.334     0.000 -30.334  -0.000  -0.000   0.000
  590  635  164  165        3      30.334     0.000 -30.334  -0.000  -0.000   0.000
  591  169  168  167        3       0.628     1.883   0.000  -2.510  -0.000   0.000
  591  169  168  592        3       0.628     1.883   0.000  -2.510  -0.000   0.000
  591  169  170  171        3      30.334     0.000 -30.334  -0.000  -0.000   0.000
  591  169  170  594        3       6.234     0.000  -6.234  -0.000  -0.000   0.000
  591  582  178  179        3       0.628     1.883   0.000  -2.510  -0.000   0.000
  591  582  183  182        3       0.628     1.883   0.000  -2.510  -0.000   0.000
  591  582  183  184        3       0.628     1.883   0.000  -2.510  -0.000   0.000
  591  586  173  172        3      30.334     0.000 -30.334  -0.000  -0.000   0.000
  591  586  173  174        3      30.334     0.000 -30.334  -0.000  -0.000   0.000
  591  586  177  176        3      30.334     0.000 -30.334  -0.000  -0.000   0.000
  592  595  166  165        3       0.628     1.883   0.000  -2.510  -0.000   0.000
  592  595  596  632        3      30.334     0.000 -30.334  -0.000  -0.000   0.000
  593  592  168  167        3      30.334     0.000 -30.334  -0.000  -0.000   0.000
  593  592  168  169        3      30.334     0.000 -30.334  -0.000  -0.000   0.000
  593  592  595  166        3      30.334     0.000 -30.334  -0.000  -0.000   0.000
  594  167  166  165        3       0.628     1.883   0.000  -2.510  -0.000   0.000
  594  167  166  595        3       0.628     1.883   0.000  -2.510  -0.000   0.000
  594  167  168  169        3       0.628     1.883   0.000  -2.510  -0.000   0.000
  594  167  168  592        3       0.628     1.883   0.000  -2.510  -0.000   0.000
  594  170  171  172        3      30.334     0.000 -30.334  -0.000  -0.000   0.000
  594  170  171  588        3      30.334     0.000 -30.334  -0.000  -0.000   0.000
  594  590  589  588        3      30.334     0.000 -30.334  -0.000  -0.000   0.000
  594  590  589  636        3      30.334     0.000 -30.334  -0.000  -0.000   0.000
  594  590  635  161        3      30.334     0.000 -30.334  -0.000  -0.000   0.000
  594  590  635  164        3      30.334     0.000 -30.334  -0.000  -0.000   0.000
  595  166  165  164        3       0.628     1.883   0.000  -2.510  -0.000   0.000
  595  166  165  632        3       0.628     1.883   0.000  -2.510  -0.000   0.000
  595  166  167  168        3       0.628     1.883   0.000  -2.510  -0.000   0.000
  595  592  168  167        3      30.334     0.000 -30.334  -0.000  -0.000   0.000
  595  592  168  169        3      30.334     0.000 -30.334  -0.000  -0.000   0.000
  595  596  632  602        3      30.334     0.000 -30.334  -0.000  -0.000   0.000
  596  595  166  167        3       0.628     1.883   0.000  -2.510  -0.000   0.000
  596  595  592  168        3      30.334     0.000 -30.334  -0.000  -0.000   0.000
  596  595  592  593        3      30.334     0.000 -30.334  -0.000  -0.000   0.000
  596  632  165  164        3       6.234     0.000  -6.234  -0.000  -0.000   0.000
  596  632  165  166        3       6.234     0.000  -6.234  -0.000  -0.000   0.000
  596  632  602  603        3       6.234     0.000  -6.234  -0.000  -0.000   0.000
  597  596  595  166        3       0.000     0.000   0.000  -0.000  -0.000   0.000
  597  596  595  592        3       0.000     0.000   0.000  -0.000  -0.000   0.000
  597  596  632  165        3      30.334     0.000 -30.334  -0.000  -0.000   0.000
  597  596  632  602        3      30.334     0.000 -30.334  -0.000  -0.000   0.000
  597  599  601  602        3       5.230     7.322 -12.552  -0.000  -0.000   0.000
  598  597  596  595        3      30.334     0.000 -30.334  -0.000  -0.000   0.000
  598  597  596  632        3      30.334     0.000 -30.334  -0.000  -0.000   0.000
  598  597  599  600        3      58.576     0.000 -58.576  -0.000  -0.000   0.000
  598  597  599  601        3      58.576     0.000 -58.576  -0.000  -0.000   0.000
  599  597  596  595        3      30.334     0.000 -30.334  -0.000  -0.000   0.000
  599  597  596  632        3      14.355     0.000 -14.355  -0.000  -0.000   0.000
  599  601  602  603        3      14.100     0.000  -9.079  -0.000  -5.021   0.000
  599  601  602  632        3      14.100     0.000  -9.079  -0.000  -5.021   0.000
  600  599  597  596        3      58.576     0.000 -58.576  -0.000  -0.000   0.000
  600  599  601  602        3       1.590     4.770   0.000  -6.360  -0.000   0.000
  601  599  597  596        3      58.576     0.000 -58.576  -0.000  -0.000   0.000
  601  602  603  604        3      30.334     0.000 -30.334  -0.000  -0.000   0.000
  601  602  603  633        3      30.334     0.000 -30.334  -0.000  -0.000   0.000
  601  602  632  165        3       9.079     0.000  -9.079  -0.000  -0.000   0.000
  601  602  632  596        3      30.334     0.000 -30.334  -0.000  -0.000   0.000
  602  603  604  605        3      18.514     1.234  -3.012 -10.711  -6.025   0.000
  602  603  633  163        3      30.334     0.000 -30.334  -0.000  -0.000   0.000
  602  603  633  616        3      30.334     0.000 -30.334  -0.000  -0.000   0.000
  602  632  165  164        3      30.334     0.000 -30.334  -0.000  -0.000   0.000
  602  632  165  166        3      30.334     0.000 -30.334  -0.000  -0.000   0.000
  603  602  632  165        3      30.334     0.000 -30.334  -0.000  -0.000   0.000
  603  604  605  606        3      18.514     1.234  -3.012 -10.711  -6.025   0.000
  603  633  163  162        3      30.334     0.000 -30.334  -0.000  -0.000   0.000
  603  633  616  615        3      30.334     0.000 -30.334  -0.000  -0.000   0.000
  603  633  616  631        3      30.334     0.000 -30.334  -0.000  -0.000   0.000
  604  603  633  163        3      29.288     0.000 -29.288  -0.000  -0.000   0.000
  604  603  633  616        3      30.334     0.000 -30.334  -0.000  -0.000   0.000
  604  605  606  607        3      30.334     0.000 -30.334  -0.000  -0.000   0.000
  604  605  631  616        3      30.334     0.000 -30.334  -0.000  -0.000   0.000
  605  604  603  633        3      18.514     1.234  -3.012 -10.711  -6.025   0.000
  605  631  616  615        3      30.334     0.000 -30.334  -0.000  -0.000   0.000
  605  631  616  633        3      30.334     0.000 -30.334  -0.000  -0.000   0.000
  606  605  631  616        3      30.334     0.000 -30.334  -0.000  -0.000   0.000
  608  606  605  604        3      30.334     0.000 -30.334  -0.000  -0.000   0.000
  608  606  605  631        3      30.334     0.000 -30.334  -0.000  -0.000   0.000
  609  608  606  605        3      30.334     0.000 -30.334  -0.000  -0.000   0.000
  609  608  606  607        3      30.334     0.000 -30.334  -0.000  -0.000   0.000
  609  608  610  611        3      30.334     0.000 -30.334  -0.000  -0.000   0.000
  609  608  610  630        3      30.334     0.000 -30.334  -0.000  -0.000   0.000
  610  608  606  605        3      30.334     0.000 -30.334  -0.000  -0.000   0.000
  610  608  606  607        3      30.334     0.000 -30.334  -0.000  -0.000   0.000
  610  611  631  605        3      30.334     0.000 -30.334  -0.000  -0.000   0.000
  610  611  631  616        3      30.334     0.000 -30.334  -0.000  -0.000   0.000
  611  610  608  606        3      30.334     0.000 -30.334  -0.000  -0.000   0.000
  611  631  605  604        3      30.334     0.000 -30.334  -0.000  -0.000   0.000
  611  631  605  606        3      30.334     0.000 -30.334  -0.000  -0.000   0.000
  611  631  616  615        3      30.334     0.000 -30.334  -0.000  -0.000   0.000
  611  631  616  633        3      30.334     0.000 -30.334  -0.000  -0.000   0.000
  612  611  610  608        3      30.334     0.000 -30.334  -0.000  -0.000   0.000
  612  611  610  630        3      30.334     0.000 -30.334  -0.000  -0.000   0.000
  612  611  631  605        3      30.334     0.000 -30.334  -0.000  -0.000   0.000
  612  611  631  616        3      30.334     0.000 -30.334  -0.000  -0.000   0.000
  612  613  614  615        3       0.628     1.883   0.000  -2.510  -0.000   0.000
  612  617  629  630        3      30.334     0.000 -30.334  -0.000  -0.000   0.000
  613  612  611  610        3      30.334     0.000 -30.334  -0.000  -0.000   0.000
  613  612  611  631        3      30.334     0.000 -30.334  -0.000  -0.000   0.000
  613  612  617  618        3      30.334     0.000 -30.334  -0.000  -0.000   0.000
  613  614  615  616        3      30.334     0.000 -30.334  -0.000  -0.000   0.000
  613  614  639  157        3       0.628     1.883   0.000  -2.510  -0.000   0.000
  613  640  155   98        3      30.334     0.000 -30.334  -0.000  -0.000   0.000
  613  640  155  156        3      30.334     0.000 -30.334  -0.000  -0.000   0.000
  613  640  618  619        3      30.334     0.000 -30.334  -0.000  -0.000   0.000
  614  613  612  611        3      30.334     0.000 -30.334  -0.000  -0.000   0.000
  614  613  612  617        3       6.234     0.000  -6.234  -0.000  -0.000   0.000
  614  613  640  155        3      30.334     0.000 -30.334  -0.000  -0.000   0.000
  614  613  640  618        3       6.234     0.000  -6.234  -0.000  -0.000   0.000
  614  615  616  631        3      30.334     0.000 -30.334  -0.000  -0.000   0.000
  614  615  616  633        3      30.334     0.000 -30.334  -0.000  -0.000   0.000
  614  615  634  162        3      30.334     0.000 -30.334  -0.000  -0.000   0.000
  614  639  157  156        3      30.334     0.000 -30.334  -0.000  -0.000   0.000
  614  639  157  158        3      30.334     0.000 -30.334  -0.000  -0.000   0.000
  614  639  637  159        3       0.628     1.883   0.000  -2.510  -0.000   0.000
  615  614  639  157        3       0.628     1.883   0.000  -2.510  -0.000   0.000
  617  612  611  610        3      30.334     0.000 -30.334  -0.000  -0.000   0.000
  617  612  611  631        3      30.334     0.000 -30.334  -0.000  -0.000   0.000
  617  629  630  610        3      30.334     0.000 -30.334  -0.000  -0.000   0.000
  617  629  630  628        3      29.288     0.000 -29.288  -0.000  -0.000   0.000
  618  617  612  611        3      30.334     0.000 -30.334  -0.000  -0.000   0.000
  618  617  629  630        3      30.334     0.000 -30.334  -0.000  -0.000   0.000
  619  618  617  612        3      30.334     0.000 -30.334  -0.000  -0.000   0.000
  620  619  618  617        3      30.334     0.000 -30.334  -0.000  -0.000   0.000
  621  619  618  617        3       6.234     0.000  -6.234  -0.000  -0.000   0.000
  621  623  624  626        3      14.355     0.000 -14.355  -0.000  -0.000   0.000
  621  623  629  617        3      30.334     0.000 -30.334  -0.000  -0.000   0.000
  621  623  629  630        3      30.334     0.000 -30.334  -0.000  -0.000   0.000
  622  621  619  618        3      30.334     0.000 -30.334  -0.000  -0.000   0.000
  622  621  619  620        3      30.334     0.000 -30.334  -0.000  -0.000   0.000
  623  621  619  618        3      30.334     0.000 -30.334  -0.000  -0.000   0.000
  623  621  619  620        3      30.334     0.000 -30.334  -0.000  -0.000   0.000
  623  624  626  628        3      58.576     0.000 -58.576  -0.000  -0.000   0.000
  623  629  617  612        3      30.334     0.000 -30.334  -0.000  -0.000   0.000
  623  629  617  618        3      30.334     0.000 -30.334  -0.000  -0.000   0.000
  623  629  630  610        3      30.334     0.000 -30.334  -0.000  -0.000   0.000
  623  629  630  628        3      30.334     0.000 -30.334  -0.000  -0.000   0.000
  624  623  621  619        3      30.334     0.000 -30.334  -0.000  -0.000   0.000
  624  623  621  622        3      30.334     0.000 -30.334  -0.000  -0.000   0.000
  624  623  629  617        3      30.334     0.000 -30.334  -0.000  -0.000   0.000
  624  623  629  630        3      30.334     0.000 -30.334  -0.000  -0.000   0.000
  624  626  628  630        3       5.230     7.322 -12.552  -0.000  -0.000   0.000
  625  624  623  621        3      30.334     0.000 -30.334  -0.000  -0.000   0.000
  625  624  626  628        3      58.576     0.000 -58.576  -0.000  -0.000   0.000
  626  628  630  610        3      14.100     0.000  -9.079  -0.000  -5.021   0.000
  627  626  624  623        3      58.576     0.000 -58.576  -0.000  -0.000   0.000
  627  626  624  625        3      58.576     0.000 -58.576  -0.000  -0.000   0.000
  627  626  628  630        3       1.590     4.770   0.000  -6.360  -0.000   0.000
  628  630  610  608        3      30.334     0.000 -30.334  -0.000  -0.000   0.000
  628  630  610  611        3      30.334     0.000 -30.334  -0.000  -0.000   0.000
  629  617  612  611        3      30.334     0.000 -30.334  -0.000  -0.000   0.000
  629  617  612  613        3      30.334     0.000 -30.334  -0.000  -0.000   0.000
  629  617  618  619        3      30.334     0.000 -30.334  -0.000  -0.000   0.000
  629  617  618  640        3      30.334     0.000 -30.334  -0.000  -0.000   0.000
  629  623  621  619        3      30.334     0.000 -30.334  -0.000  -0.000   0.000
  629  623  621  622        3      30.334     0.000 -30.334  -0.000  -0.000   0.000
  629  623  624  625        3      30.334     0.000 -30.334  -0.000  -0.000   0.000
  629  623  624  626        3      30.334     0.000 -30.334  -0.000  -0.000   0.000
  629  630  610  608        3      30.334     0.000 -30.334  -0.000  -0.000   0.000
  629  630  610  611        3      30.334     0.000 -30.334  -0.000  -0.000   0.000
  629  630  628  626        3      14.100     0.000  -9.079  -0.000  -5.021   0.000
  630  610  608  606        3      30.334     0.000 -30.334  -0.000  -0.000   0.000
  630  610  611  631        3      30.334     0.000 -30.334  -0.000  -0.000   0.000
  631  605  604  603        3      18.514     1.234  -3.012 -10.711  -6.025   0.000
  631  605  606  607        3      30.334     0.000 -30.334  -0.000  -0.000   0.000
  631  611  610  608        3      30.334     0.000 -30.334  -0.000  -0.000   0.000
  631  616  633  163        3      30.334     0.000 -30.334  -0.000  -0.000   0.000
  632  165  164  163        3       0.628     1.883   0.000  -2.510  -0.000   0.000
  632  165  166  167        3       0.628     1.883   0.000  -2.510  -0.000   0.000
  632  602  603  604        3      30.334     0.000 -30.334  -0.000  -0.000   0.000
  632  602  603  633        3      30.334     0.000 -30.334  -0.000  -0.000   0.000
  634  162  161  160        3      30.334     0.000 -30.334  -0.000  -0.000   0.000
  634  162  161  635        3       6.234     0.000  -6.234  -0.000  -0.000   0.000
  634  162  163  164        3      30.334     0.000 -30.334  -0.000  -0.000   0.000
  634  162  163  633        3      30.334     0.000 -30.334  -0.000  -0.000   0.000
  634  615  614  613        3      30.334     0.000 -30.334  -0.000  -0.000   0.000
  634  615  614  639        3      30.334     0.000 -30.334  -0.000  -0.000   0.000
  634  615  616  631        3      30.334     0.000 -30.334  -0.000  -0.000   0.000
  634  615  616  633        3      30.334     0.000 -30.334  -0.000  -0.000   0.000
  634  637  159  158        3       9.079     0.000  -9.079  -0.000  -0.000   0.000
  634  637  159  160        3       9.079     0.000  -9.079  -0.000  -0.000   0.000
  634  637  639  157        3       0.628     1.883   0.000  -2.510  -0.000   0.000
  635  161  160  159        3      30.334     0.000 -30.334  -0.000  -0.000   0.000
  635  164  163  633        3      30.334     0.000 -30.334  -0.000  -0.000   0.000
  635  164  165  166        3       0.628     1.883   0.000  -2.510  -0.000   0.000
  635  164  165  632        3       0.628     1.883   0.000  -2.510  -0.000   0.000
  635  590  594  167        3      30.334     0.000 -30.334  -0.000  -0.000   0.000
  636  160  161  162        3      30.334     0.000 -30.334  -0.000  -0.000   0.000
  636  160  161  635        3      30.334     0.000 -30.334  -0.000  -0.000   0.000
  636  528  525  524        3      30.334     0.000 -30.334  -0.000  -0.000   0.000
  636  528  525  526        3      30.334     0.000 -30.334  -0.000  -0.000   0.000
  636  589  588  526        3      30.334     0.000 -30.334  -0.000  -0.000   0.000
  636  589  590  635        3      30.334     0.000 -30.334  -0.000  -0.000   0.000
  637  159  158  638        3      30.334     0.000 -30.334  -0.000  -0.000   0.000
  637  159  160  161        3      30.334     0.000 -30.334  -0.000  -0.000   0.000
  637  159  160  636        3      30.334     0.000 -30.334  -0.000  -0.000   0.000
  637  634  162  161        3      30.334     0.000 -30.334  -0.000  -0.000   0.000
  637  634  162  163        3      30.334     0.000 -30.334  -0.000  -0.000   0.000
  637  634  615  616        3      30.334     0.000 -30.334  -0.000  -0.000   0.000
  637  639  157  156        3      30.334     0.000 -30.334  -0.000  -0.000   0.000
  637  639  614  613        3       0.628     1.883   0.000  -2.510  -0.000   0.000
  638  158  157  156        3      30.334     0.000 -30.334  -0.000  -0.000   0.000
  638  158  159  160        3      30.334     0.000 -30.334  -0.000  -0.000   0.000
  638  529  528  525        3      30.334     0.000 -30.334  -0.000  -0.000   0.000
  638  529  528  636        3      30.334     0.000 -30.334  -0.000  -0.000   0.000
  638  529  531  523        3      30.334     0.000 -30.334  -0.000  -0.000   0.000
  638  548  532  533        3      30.334     0.000 -30.334  -0.000  -0.000   0.000
  638  548  549  642        3      30.334     0.000 -30.334  -0.000  -0.000   0.000
  639  157  156  155        3      30.334     0.000 -30.334  -0.000  -0.000   0.000
  639  157  156  642        3      30.334     0.000 -30.334  -0.000  -0.000   0.000
  639  157  158  159        3      30.334     0.000 -30.334  -0.000  -0.000   0.000
  639  157  158  638        3      30.334     0.000 -30.334  -0.000  -0.000   0.000
  639  614  613  612        3       0.628     1.883   0.000  -2.510  -0.000   0.000
  639  614  615  616        3      30.334     0.000 -30.334  -0.000  -0.000   0.000
  639  637  159  160        3      30.334     0.000 -30.334  -0.000  -0.000   0.000
  639  637  634  162        3      14.355     0.000 -14.355  -0.000  -0.000   0.000
  640  155   98   97        3      30.334     0.000 -30.334  -0.000  -0.000   0.000
  640  155   98   99        3      30.334     0.000 -30.334  -0.000  -0.000   0.000
  640  155  156  157        3      30.334     0.000 -30.334  -0.000  -0.000   0.000
  640  155  156  642        3      30.334     0.000 -30.334  -0.000  -0.000   0.000
  640  613  612  611        3      30.334     0.000 -30.334  -0.000  -0.000   0.000
  640  613  614  615        3       0.628     1.883   0.000  -2.510  -0.000   0.000
  640  613  614  639        3       0.628     1.883   0.000  -2.510  -0.000   0.000
  640  618  617  612        3      30.334     0.000 -30.334  -0.000  -0.000   0.000
  640  618  619  620        3      30.334     0.000 -30.334  -0.000  -0.000   0.000
  640  618  619  621        3       6.234     0.000  -6.234  -0.000  -0.000   0.000
  641   97   96   95        3      30.334     0.000 -30.334  -0.000  -0.000   0.000
  641   97   96  642        3      30.334     0.000 -30.334  -0.000  -0.000   0.000
  641   97   98   99        3      30.334     0.000 -30.334  -0.000  -0.000   0.000
  641  153  100   99        3      30.334     0.000 -30.334  -0.000  -0.000   0.000
  641  153  100  101        3      30.334     0.000 -30.334  -0.000  -0.000   0.000
  641  153  647   85        3      30.334     0.000 -30.334  -0.000  -0.000   0.000
  641  646   86   85        3      30.334     0.000 -30.334  -0.000  -0.000   0.000
  641  646   86   87        3      30.334     0.000 -30.334  -0.000  -0.000   0.000
  641  646  645   90        3      30.334     0.000 -30.334  -0.000  -0.000   0.000
  641  646  645   95        3      30.334     0.000 -30.334  -0.000  -0.000   0.000
  642   96   95   94        3      30.334     0.000 -30.334  -0.000  -0.000   0.000
  642   96   95  645        3      30.334     0.000 -30.334  -0.000  -0.000   0.000
  642  549  548  532        3      30.334     0.000 -30.334  -0.000  -0.000   0.000
  642  549  643   94        3      30.334     0.000 -30.334  -0.000  -0.000   0.000
  642  549  643  534        3      30.334     0.000 -30.334  -0.000  -0.000   0.000
  643   94   93   91        3      30.334     0.000 -30.334  -0.000  -0.000   0.000
  643   94   95   96        3      30.334     0.000 -30.334  -0.000  -0.000   0.000
  643   94   95  645        3      30.334     0.000 -30.334  -0.000  -0.000   0.000
  643  534  533  532        3      30.334     0.000 -30.334  -0.000  -0.000   0.000
  643  534  533  550        3      30.334     0.000 -30.334  -0.000  -0.000   0.000
  643  534  535  536        3      30.334     0.000 -30.334  -0.000  -0.000   0.000
  643  534  535  644        3      30.334     0.000 -30.334  -0.000  -0.000   0.000
  643  549  548  532        3      30.334     0.000 -30.334  -0.000  -0.000   0.000
  643  549  548  638        3      30.334     0.000 -30.334  -0.000  -0.000   0.000
  643  549  642   96        3      30.334     0.000 -30.334  -0.000  -0.000   0.000
  643  549  642  156        3      30.334     0.000 -30.334  -0.000  -0.000   0.000
  644   93   91   90        3      30.334     0.000 -30.334  -0.000  -0.000   0.000
  644   93   91   92        3      30.334     0.000 -30.334  -0.000  -0.000   0.000
  644   93   94   95        3      30.334     0.000 -30.334  -0.000  -0.000   0.000
  644   93   94  643        3      30.334     0.000 -30.334  -0.000  -0.000   0.000
  644  535  534  533        3      30.334     0.000 -30.334  -0.000  -0.000   0.000
  644  535  536  537        3      30.334     0.000 -30.334  -0.000  -0.000   0.000
  644  535  536  538        3      30.334     0.000 -30.334  -0.000  -0.000   0.000
  644  540  539  538        3      30.334     0.000 -30.334  -0.000  -0.000   0.000
  644  540  677   60        3      30.334     0.000 -30.334  -0.000  -0.000   0.000
  644  540  677   92        3      30.334     0.000 -30.334  -0.000  -0.000   0.000
  645   90   91   92        3      30.334     0.000 -30.334  -0.000  -0.000   0.000
  645   90   91   93        3      30.334     0.000 -30.334  -0.000  -0.000   0.000
  645   95   94   93        3      30.334     0.000 -30.334  -0.000  -0.000   0.000
  645  646   86   85        3      30.334     0.000 -30.334  -0.000  -0.000   0.000
  646   86   85   84        3      30.334     0.000 -30.334  -0.000  -0.000   0.000
  646   86   85  647        3      30.334     0.000 -30.334  -0.000  -0.000   0.000
  646   86   87   88        3      30.334     0.000 -30.334  -0.000  -0.000   0.000
  646   86   87  649        3      30.334     0.000 -30.334  -0.000  -0.000   0.000
  646  641   97   96        3      30.334     0.000 -30.334  -0.000  -0.000   0.000
  646  641   97   98        3      30.334     0.000 -30.334  -0.000  -0.000   0.000
  646  641  153  100        3      30.334     0.000 -30.334  -0.000  -0.000   0.000
  646  641  153  647        3      30.334     0.000 -30.334  -0.000  -0.000   0.000
  646  645   90   88        3      30.334     0.000 -30.334  -0.000  -0.000   0.000
  646  645   90   91        3      30.334     0.000 -30.334  -0.000  -0.000   0.000
  646  645   95   94        3      30.334     0.000 -30.334  -0.000  -0.000   0.000
  646  645   95   96        3      30.334     0.000 -30.334  -0.000  -0.000   0.000
  647   85   84   83        3      30.334     0.000 -30.334  -0.000  -0.000   0.000
  647   85   84  648        3      30.334     0.000 -30.334  -0.000  -0.000   0.000
  647  128  127  124        3      30.334     0.000 -30.334  -0.000  -0.000   0.000
  647  128  127  648        3      30.334     0.000 -30.334  -0.000  -0.000   0.000
  648   84   83   82        3      30.334     0.000 -30.334  -0.000  -0.000   0.000
  648   84   83  649        3      30.334     0.000 -30.334  -0.000  -0.000   0.000
  648  127  124  123        3      30.334     0.000 -30.334  -0.000  -0.000   0.000
  648  652   81   79        3      30.334     0.000 -30.334  -0.000  -0.000   0.000
  649   83   84   85        3      30.334     0.000 -30.334  -0.000  -0.000   0.000
  649   87   86   85        3      30.334     0.000 -30.334  -0.000  -0.000   0.000
  649   87   88   90        3      30.334     0.000 -30.334  -0.000  -0.000   0.000
  649  650  662   66        3      30.334     0.000 -30.334  -0.000  -0.000   0.000
  649  650  673   64        3      30.334     0.000 -30.334  -0.000  -0.000   0.000
  650  649   83   84        3      30.334     0.000 -30.334  -0.000  -0.000   0.000
  650  649   87   86        3      30.334     0.000 -30.334  -0.000  -0.000   0.000
  650  649   87   88        3      30.334     0.000 -30.334  -0.000  -0.000   0.000
  650  662   66   65        3      30.334     0.000 -30.334  -0.000  -0.000   0.000
  650  662   66   67        3      30.334     0.000 -30.334  -0.000  -0.000   0.000
  650  673   64   63        3      30.334     0.000 -30.334  -0.000  -0.000   0.000
  650  673   64   65        3      30.334     0.000 -30.334  -0.000  -0.000   0.000
  650  673   89   88        3      30.334     0.000 -30.334  -0.000  -0.000   0.000
  651   82   81   79        3      30.334     0.000 -30.334  -0.000  -0.000   0.000
  651   82   83   84        3      30.334     0.000 -30.334  -0.000  -0.000   0.000
  651   82   83  649        3      30.334     0.000 -30.334  -0.000  -0.000   0.000
  651  658   68   67        3      30.334     0.000 -30.334  -0.000  -0.000   0.000
  651  658   68   69        3      30.334     0.000 -30.334  -0.000  -0.000   0.000
  651  658   80   79        3      30.334     0.000 -30.334  -0.000  -0.000   0.000
  651  658   80  655        3      30.334     0.000 -30.334  -0.000  -0.000   0.000
  651  662   66   65        3      30.334     0.000 -30.334  -0.000  -0.000   0.000
  651  662   66   67        3      30.334     0.000 -30.334  -0.000  -0.000   0.000
  651  662  650  649        3      30.334     0.000 -30.334  -0.000  -0.000   0.000
  651  662  650  673        3      30.334     0.000 -30.334  -0.000  -0.000   0.000
  652   81   79   78        3      30.334     0.000 -30.334  -0.000  -0.000   0.000
  652   81   79   80        3      30.334     0.000 -30.334  -0.000  -0.000   0.000
  652   81   82   83        3      30.334     0.000 -30.334  -0.000  -0.000   0.000
  652   81   82  651        3      30.334     0.000 -30.334  -0.000  -0.000   0.000
  652  126  125  124        3      30.334     0.000 -30.334  -0.000  -0.000   0.000
  652  126  653   78        3      30.334     0.000 -30.334  -0.000  -0.000   0.000
  652  126  653  130        3      30.334     0.000 -30.334  -0.000  -0.000   0.000
  652  648   84   83        3      30.334     0.000 -30.334  -0.000  -0.000   0.000
  652  648   84   85        3      30.334     0.000 -30.334  -0.000  -0.000   0.000
  652  648  127  124        3      30.334     0.000 -30.334  -0.000  -0.000   0.000
  652  648  127  128        3      30.334     0.000 -30.334  -0.000  -0.000   0.000
  653   78   77   76        3      30.334     0.000 -30.334  -0.000  -0.000   0.000
  653   78   77  654        3      30.334     0.000 -30.334  -0.000  -0.000   0.000
  653   78   79   80        3      30.334     0.000 -30.334  -0.000  -0.000   0.000
  653  126  125  124        3      30.334     0.000 -30.334  -0.000  -0.000   0.000
  653  126  652  648        3      30.334     0.000 -30.334  -0.000  -0.000   0.000
  653  130  131  132        3      30.334     0.000 -30.334  -0.000  -0.000   0.000
  653  130  131  654        3      30.334     0.000 -30.334  -0.000  -0.000   0.000
  654   77   76   75        3      30.334     0.000 -30.334  -0.000  -0.000   0.000
  654   77   76  655        3      30.334     0.000 -30.334  -0.000  -0.000   0.000
  654   77   78   79        3      30.334     0.000 -30.334  -0.000  -0.000   0.000
  654  141  656   75        3      14.100     0.000  -9.079  -0.000  -5.021   0.000
  655   76   75  656        3       9.079     0.000  -9.079  -0.000  -0.000   0.000
  655   80  658   68        3      30.334     0.000 -30.334  -0.000  -0.000   0.000
  655  657   69   68        3      30.334     0.000 -30.334  -0.000  -0.000   0.000
  655  657   69   70        3      30.334     0.000 -30.334  -0.000  -0.000   0.000
  655  657   74   72        3       0.628     1.883   0.000  -2.510  -0.000   0.000
  656   75   74   72        3       9.079     0.000  -9.079  -0.000  -0.000   0.000
  657   69   68   67        3      30.334     0.000 -30.334  -0.000  -0.000   0.000
  657   69   68  658        3      30.334     0.000 -30.334  -0.000  -0.000   0.000
  657   74   72   70        3       6.234     0.000  -6.234  -0.000  -0.000   0.000
  657   74   75  656        3       9.079     0.000  -9.079  -0.000  -0.000   0.000
  657  655   76   75        3      30.334     0.000 -30.334  -0.000  -0.000   0.000
  657  655   76   77        3      30.334     0.000 -30.334  -0.000  -0.000   0.000
  657  655   80   79        3      30.334     0.000 -30.334  -0.000  -0.000   0.000
  658   68   67  659        3      30.334     0.000 -30.334  -0.000  -0.000   0.000
  658   68   69   70        3      30.334     0.000 -30.334  -0.000  -0.000   0.000
  658   80   79   78        3      30.334     0.000 -30.334  -0.000  -0.000   0.000
  658   80  655   76        3      30.334     0.000 -30.334  -0.000  -0.000   0.000
  658   80  655  657        3      30.334     0.000 -30.334  -0.000  -0.000   0.000
  658  651   82   81        3      30.334     0.000 -30.334  -0.000  -0.000   0.000
  658  651   82   83        3      30.334     0.000 -30.334  -0.000  -0.000   0.000
  658  651  662   66        3      30.334     0.000 -30.334  -0.000  -0.000   0.000
  658  651  662  650        3      30.334     0.000 -30.334  -0.000  -0.000   0.000
  659   67   68   69        3      29.288     0.000 -29.288  -0.000  -0.000   0.000
  660  659   67   68        3      10.460     0.000 -10.460  -0.000  -0.000   0.000
  661  660  659   67        3      20.920     0.000 -20.920  -0.000  -0.000   0.000
  662   66   65   64        3      30.334     0.000 -30.334  -0.000  -0.000   0.000
  662   66   67   68        3      30.334     0.000 -30.334  -0.000  -0.000   0.000
  662   66   67  659        3      30.334     0.000 -30.334  -0.000  -0.000   0.000
  662  650  649   83        3      30.334     0.000 -30.334  -0.000  -0.000   0.000
  662  650  649   87        3      30.334     0.000 -30.334  -0.000  -0.000   0.000
  662  650  673   64        3      30.334     0.000 -30.334  -0.000  -0.000   0.000
  662  650  673   89        3      30.334     0.000 -30.334  -0.000  -0.000   0.000
  662  651   82   81        3      30.334     0.000 -30.334  -0.000  -0.000   0.000
  662  651   82   83        3      30.334     0.000 -30.334  -0.000  -0.000   0.000
  662  651  658   68        3      30.334     0.000 -30.334  -0.000  -0.000   0.000
  662  651  658   80        3      30.334     0.000 -30.334  -0.000  -0.000   0.000
  663   65   64   63        3      30.334     0.000 -30.334  -0.000  -0.000   0.000
  663   65   64  673        3      30.334     0.000 -30.334  -0.000  -0.000   0.000
  663   65   66   67        3      30.334     0.000 -30.334  -0.000  -0.000   0.000
  663   65   66  662        3      30.334     0.000 -30.334  -0.000  -0.000   0.000
  663  660  659   67        3      24.058    -3.138 -20.920  -0.000  -0.000   0.000
  663  664  665  667        3      30.334     0.000 -30.334  -0.000  -0.000   0.000
  663  664  674   63        3      30.334     0.000 -30.334  -0.000  -0.000   0.000
  663  664  674  672        3      30.334     0.000 -30.334  -0.000  -0.000   0.000
  664  663   65   64        3      30.334     0.000 -30.334  -0.000  -0.000   0.000
  664  663   65   66        3      30.334     0.000 -30.334  -0.000  -0.000   0.000
  664  663  660  659        3      29.288     0.000 -29.288  -0.000  -0.000   0.000
  664  663  660  661        3      29.288     0.000 -29.288  -0.000  -0.000   0.000
  664  674   63   62        3      30.334     0.000 -30.334  -0.000  -0.000   0.000
  664  674   63   64        3      30.334     0.000 -30.334  -0.000  -0.000   0.000
  664  674  672  669        3      30.334     0.000 -30.334  -0.000  -0.000   0.000
  664  674  672  676        3      30.334     0.000 -30.334  -0.000  -0.000   0.000
  665  664  663   65        3      30.334     0.000 -30.334  -0.000  -0.000   0.000
  665  664  663  660        3      30.334     0.000 -30.334  -0.000  -0.000   0.000
  665  664  674   63        3      30.334     0.000 -30.334  -0.000  -0.000   0.000
  665  664  674  672        3      30.334     0.000 -30.334  -0.000  -0.000   0.000
  665  667  669  670        3      30.334     0.000 -30.334  -0.000  -0.000   0.000
  665  667  669  672        3       6.234     0.000  -6.234  -0.000  -0.000   0.000
  666  665  664  663        3      30.334     0.000 -30.334  -0.000  -0.000   0.000
  666  665  664  674        3      30.334     0.000 -30.334  -0.000  -0.000   0.000
  666  665  667  669        3      30.334     0.000 -30.334  -0.000  -0.000   0.000
  667  665  664  674        3      30.334     0.000 -30.334  -0.000  -0.000   0.000
  667  669  670  671        3      30.334     0.000 -30.334  -0.000  -0.000   0.000
  667  669  672  674        3      30.334     0.000 -30.334  -0.000  -0.000   0.000
  668  667  665  664        3      30.334     0.000 -30.334  -0.000  -0.000   0.000
  668  667  665  666        3      30.334     0.000 -30.334  -0.000  -0.000   0.000
  668  667  669  670        3      30.334     0.000 -30.334  -0.000  -0.000   0.000
  668  667  669  672        3      30.334     0.000 -30.334  -0.000  -0.000   0.000
  669  667  665  664        3      30.334     0.000 -30.334  -0.000  -0.000   0.000
  669  670  671  682        3       0.628     1.883   0.000  -2.510  -0.000   0.000
  669  670  671  683        3       0.628     1.883   0.000  -2.510  -0.000   0.000
  669  670  679   58        3      30.334     0.000 -30.334  -0.000  -0.000   0.000
  669  672  674   63        3      30.334     0.000 -30.334  -0.000  -0.000   0.000
  669  672  676   61        3      30.334     0.000 -30.334  -0.000  -0.000   0.000
  670  669  672  674        3      30.334     0.000 -30.334  -0.000  -0.000   0.000
  670  679  676   61        3      30.334     0.000 -30.334  -0.000  -0.000   0.000
  671  682   49   50        3      30.334     0.000 -30.334  -0.000  -0.000   0.000
  671  682  681   54        3      30.334     0.000 -30.334  -0.000  -0.000   0.000
  672  669  670  671        3       6.234     0.000  -6.234  -0.000  -0.000   0.000
  672  669  670  679        3      30.334     0.000 -30.334  -0.000  -0.000   0.000
  672  674   63   62        3      30.334     0.000 -30.334  -0.000  -0.000   0.000
  672  674   63   64        3      30.334     0.000 -30.334  -0.000  -0.000   0.000
  672  676   61   60        3      30.334     0.000 -30.334  -0.000  -0.000   0.000
  672  676   61   62        3      30.334     0.000 -30.334  -0.000  -0.000   0.000
  672  676  679   58        3      30.334     0.000 -30.334  -0.000  -0.000   0.000
  673   64   63   62        3      30.334     0.000 -30.334  -0.000  -0.000   0.000
  673   64   65   66        3      30.334     0.000 -30.334  -0.000  -0.000   0.000
  673   89   88   87        3      30.334     0.000 -30.334  -0.000  -0.000   0.000
  673   89   88   90        3      30.334     0.000 -30.334  -0.000  -0.000   0.000
  673   89  675   62        3      30.334     0.000 -30.334  -0.000  -0.000   0.000
  673   89  675   92        3      30.334     0.000 -30.334  -0.000  -0.000   0.000
  673  650  649   83        3      30.334     0.000 -30.334  -0.000  -0.000   0.000
  673  650  649   87        3      30.334     0.000 -30.334  -0.000  -0.000   0.000
  673  650  662   66        3      30.334     0.000 -30.334  -0.000  -0.000   0.000
  674   63   64   65        3      30.334     0.000 -30.334  -0.000  -0.000   0.000
  674   63   64  673        3      30.334     0.000 -30.334  -0.000  -0.000   0.000
  674  664  663   65        3      30.334     0.000 -30.334  -0.000  -0.000   0.000
  674  664  663  660        3      30.334     0.000 -30.334  -0.000  -0.000   0.000
  675   62   61   60        3      30.334     0.000 -30.334  -0.000  -0.000   0.000
  675   62   61  676        3      30.334     0.000 -30.334  -0.000  -0.000   0.000
  675   62   63   64        3      30.334     0.000 -30.334  -0.000  -0.000   0.000
  675   62   63  674        3      30.334     0.000 -30.334  -0.000  -0.000   0.000
  675   89   88   87        3      30.334     0.000 -30.334  -0.000  -0.000   0.000
  675   89   88   90        3      30.334     0.000 -30.334  -0.000  -0.000   0.000
  675   89  673   64        3      30.334     0.000 -30.334  -0.000  -0.000   0.000
  675   89  673  650        3      30.334     0.000 -30.334  -0.000  -0.000   0.000
  675   92   91   90        3      30.334     0.000 -30.334  -0.000  -0.000   0.000
  675   92   91   93        3      30.334     0.000 -30.334  -0.000  -0.000   0.000
  675   92  677   60        3      30.334     0.000 -30.334  -0.000  -0.000   0.000
  675   92  677  540        3      30.334     0.000 -30.334  -0.000  -0.000   0.000
  676   61   60   59        3      30.334     0.000 -30.334  -0.000  -0.000   0.000
  676   61   60  677        3      30.334     0.000 -30.334  -0.000  -0.000   0.000
  676   61   62   63        3      30.334     0.000 -30.334  -0.000  -0.000   0.000
  676  672  669  667        3      30.334     0.000 -30.334  -0.000  -0.000   0.000
  676  672  674   63        3      30.334     0.000 -30.334  -0.000  -0.000   0.000
  676  679   58   59        3      30.334     0.000 -30.334  -0.000  -0.000   0.000
  676  679  670  671        3       6.234     0.000  -6.234  -0.000  -0.000   0.000
  677   60   61   62        3      30.334     0.000 -30.334  -0.000  -0.000   0.000
  677   92  675   62        3      30.334     0.000 -30.334  -0.000  -0.000   0.000
  678   59   58   57        3      30.334     0.000 -30.334  -0.000  -0.000   0.000
  678   59   60   61        3      30.334     0.000 -30.334  -0.000  -0.000   0.000
  678   59   60  677        3      30.334     0.000 -30.334  -0.000  -0.000   0.000
  678  539  538  536        3      30.334     0.000 -30.334  -0.000  -0.000   0.000
  678  539  538  541        3      30.334     0.000 -30.334  -0.000  -0.000   0.000
  678  539  540  644        3      30.334     0.000 -30.334  -0.000  -0.000   0.000
  678  539  540  677        3      30.334     0.000 -30.334  -0.000  -0.000   0.000
  678  547  544  541        3      30.334     0.000 -30.334  -0.000  -0.000   0.000
  678  547  544  545        3      30.334     0.000 -30.334  -0.000  -0.000   0.000
  678  547  680   56        3      30.334     0.000 -30.334  -0.000  -0.000   0.000
  679   58   57   56        3      30.334     0.000 -30.334  -0.000  -0.000   0.000
  679   58   57  681        3      30.334     0.000 -30.334  -0.000  -0.000   0.000
  679   58   59   60        3      30.334     0.000 -30.334  -0.000  -0.000   0.000
  679   58   59  678        3      30.334     0.000 -30.334  -0.000  -0.000   0.000
  679  670  669  667        3      30.334     0.000 -30.334  -0.000  -0.000   0.000
  679  670  671  682        3       0.628     1.883   0.000  -2.510  -0.000   0.000
  679  670  671  683        3       0.628     1.883   0.000  -2.510  -0.000   0.000
  679  676   61   60        3      30.334     0.000 -30.334  -0.000  -0.000   0.000
  679  676   61   62        3      30.334     0.000 -30.334  -0.000  -0.000   0.000
  679  676  672  674        3      30.334     0.000 -30.334  -0.000  -0.000   0.000
  680   56   55   54        3       0.628     1.883   0.000  -2.510  -0.000   0.000
  680   56   55  695        3       0.628     1.883   0.000  -2.510  -0.000   0.000
  680   56   57   58        3      30.334     0.000 -30.334  -0.000  -0.000   0.000
  680   56   57  681        3      30.334     0.000 -30.334  -0.000  -0.000   0.000
  680  546  545  544        3       6.234     0.000  -6.234  -0.000  -0.000   0.000
  680  546  545  700        3      30.334     0.000 -30.334  -0.000  -0.000   0.000
  680  546  699    7        3      30.334     0.000 -30.334  -0.000  -0.000   0.000
  680  546  699  697        3      30.334     0.000 -30.334  -0.000  -0.000   0.000
  680  547  544  541        3      30.334     0.000 -30.334  -0.000  -0.000   0.000
  680  547  678   59        3      30.334     0.000 -30.334  -0.000  -0.000   0.000
  680  547  678  539        3      30.334     0.000 -30.334  -0.000  -0.000   0.000
  681   54   53   50        3      30.334     0.000 -30.334  -0.000  -0.000   0.000
  681   54   55  695        3      14.355     0.000 -14.355  -0.000  -0.000   0.000
  681  682   49   48        3      30.334     0.000 -30.334  -0.000  -0.000   0.000
  681  682   49   50        3      30.334     0.000 -30.334  -0.000  -0.000   0.000
  681  682  671  670        3      14.355     0.000 -14.355  -0.000  -0.000   0.000
  681  682  671  683        3      14.355     0.000 -14.355  -0.000  -0.000   0.000
  682   49   48   47        3      14.355     0.000 -14.355  -0.000  -0.000   0.000
  682   49   50   53        3      30.334     0.000 -30.334  -0.000  -0.000   0.000
  682  681   54   53        3      30.334     0.000 -30.334  -0.000  -0.000   0.000
  682  681   54   55        3      30.334     0.000 -30.334  -0.000  -0.000   0.000
  682  681   57   56        3      30.334     0.000 -30.334  -0.000  -0.000   0.000
  683   48   49   50        3      14.355     0.000 -14.355  -0.000  -0.000   0.000
  684   47   48  683        3       0.628     1.883   0.000  -2.510  -0.000   0.000
  684  687   32   31        3      30.334     0.000 -30.334  -0.000  -0.000   0.000
  684  687   32   33        3      30.334     0.000 -30.334  -0.000  -0.000   0.000
  684  687   45   43        3      30.334     0.000 -30.334  -0.000  -0.000   0.000
  684  688   30   29        3      30.334     0.000 -30.334  -0.000  -0.000   0.000
  684  688   30   31        3      30.334     0.000 -30.334  -0.000  -0.000   0.000
  684  688   51   50        3      30.334     0.000 -30.334  -0.000  -0.000   0.000
  684  688   51   52        3      30.334     0.000 -30.334  -0.000  -0.000   0.000
  685   46   45   43        3      30.334     0.000 -30.334  -0.000  -0.000   0.000
  685   46   45  687        3      30.334     0.000 -30.334  -0.000  -0.000   0.000
  685   46   47  684        3       0.628     1.883   0.000  -2.510  -0.000   0.000
  685  683   48   49        3       0.628     1.883   0.000  -2.510  -0.000   0.000
  685  683  671  670        3       0.628     1.883   0.000  -2.510  -0.000   0.000
  685  683  671  682        3       0.628     1.883   0.000  -2.510  -0.000   0.000
  686  685   46   45        3      30.334     0.000 -30.334  -0.000  -0.000   0.000
  686  685   46   47        3      30.334     0.000 -30.334  -0.000  -0.000   0.000
  686  685  683   48        3      30.334     0.000 -30.334  -0.000  -0.000   0.000
  686  685  683  671        3      30.334     0.000 -30.334  -0.000  -0.000   0.000
  687   32   31   30        3      30.334     0.000 -30.334  -0.000  -0.000   0.000
  687   32   31  689        3      30.334     0.000 -30.334  -0.000  -0.000   0.000
  687   32   33   34        3      30.334     0.000 -30.334  -0.000  -0.000   0.000
  687   32   33   42        3      30.334     0.000 -30.334  -0.000  -0.000   0.000
  687   45   43   42        3      30.334     0.000 -30.334  -0.000  -0.000   0.000
  687   45   46   47        3       6.234     0.000  -6.234  -0.000  -0.000   0.000
  687  684   47   48        3       6.234     0.000  -6.234  -0.000  -0.000   0.000
  687  684  688   30        3      30.334     0.000 -30.334  -0.000  -0.000   0.000
  687  684  688   51        3      30.334     0.000 -30.334  -0.000  -0.000   0.000
  688   30   29   28        3      30.334     0.000 -30.334  -0.000  -0.000   0.000
  688   30   29  691        3      30.334     0.000 -30.334  -0.000  -0.000   0.000
  688   30   31   32        3      30.334     0.000 -30.334  -0.000  -0.000   0.000
  688   51   50   49        3      30.334     0.000 -30.334  -0.000  -0.000   0.000
  688   51   50   53        3      30.334     0.000 -30.334  -0.000  -0.000   0.000
  688   51   52  691        3      30.334     0.000 -30.334  -0.000  -0.000   0.000
  688   51   52  694        3      30.334     0.000 -30.334  -0.000  -0.000   0.000
  688  684   47   46        3      30.334     0.000 -30.334  -0.000  -0.000   0.000
  688  684   47   48        3      30.334     0.000 -30.334  -0.000  -0.000   0.000
  688  684  687   32        3      30.334     0.000 -30.334  -0.000  -0.000   0.000
  688  684  687   45        3      30.334     0.000 -30.334  -0.000  -0.000   0.000
  689   27   26   24        3      14.100     0.000  -9.079  -0.000  -5.021   0.000
  689   27   28   29        3      29.288     0.000 -29.288  -0.000  -0.000   0.000
  689   27   28  690        3      30.334     0.000 -30.334  -0.000  -0.000   0.000
  689   31   30   29        3      30.334     0.000 -30.334  -0.000  -0.000   0.000
  689   31   30  688        3      30.334     0.000 -30.334  -0.000  -0.000   0.000
  689   31   32   33        3      30.334     0.000 -30.334  -0.000  -0.000   0.000
  689   41   34   33        3      18.514     1.234  -3.012 -10.711  -6.025   0.000
  689   41   34   35        3      18.514     1.234  -3.012 -10.711  -6.025   0.000
  690   16   15   14        3      30.334     0.000 -30.334  -0.000  -0.000   0.000
  690   16   15  691        3      30.334     0.000 -30.334  -0.000  -0.000   0.000
  690   16   17   18        3      30.334     0.000 -30.334  -0.000  -0.000   0.000
  690   16   17   19        3      30.334     0.000 -30.334  -0.000  -0.000   0.000
  690   23   21   19        3      30.334     0.000 -30.334  -0.000  -0.000   0.000
  690   23   24   26        3      58.576     0.000 -58.576  -0.000  -0.000   0.000
  690   28   27   26        3      30.334     0.000 -30.334  -0.000  -0.000   0.000
  690   28   29  691        3      30.334     0.000 -30.334  -0.000  -0.000   0.000
  691   29   28   27        3      30.334     0.000 -30.334  -0.000  -0.000   0.000
  691   52   51   50        3      30.334     0.000 -30.334  -0.000  -0.000   0.000
  691   52  694   53        3      30.334     0.000 -30.334  -0.000  -0.000   0.000
  692   14   13   12        3      30.334     0.000 -30.334  -0.000  -0.000   0.000
  692   14   15   16        3      30.334     0.000 -30.334  -0.000  -0.000   0.000
  692   14   15  691        3      30.334     0.000 -30.334  -0.000  -0.000   0.000
  692  315  314  309        3      30.334     0.000 -30.334  -0.000  -0.000   0.000
  692  315  314  317        3      30.334     0.000 -30.334  -0.000  -0.000   0.000
  692  343  318  317        3      30.334     0.000 -30.334  -0.000  -0.000   0.000
  692  343  318  319        3      30.334     0.000 -30.334  -0.000  -0.000   0.000
  693   13   12   11        3      30.334     0.000 -30.334  -0.000  -0.000   0.000
  693   13   14   15        3      30.334     0.000 -30.334  -0.000  -0.000   0.000
  693  323  322  319        3      30.334     0.000 -30.334  -0.000  -0.000   0.000
  693  323  696   10        3      29.288     0.000 -29.288  -0.000  -0.000   0.000
  693  323  696  327        3      30.334     0.000 -30.334  -0.000  -0.000   0.000
  693  343  318  317        3      30.334     0.000 -30.334  -0.000  -0.000   0.000
  693  343  318  319        3      30.334     0.000 -30.334  -0.000  -0.000   0.000
  694   12   11   10        3      30.334     0.000 -30.334  -0.000  -0.000   0.000
  694   12   11  695        3      30.334     0.000 -30.334  -0.000  -0.000   0.000
  694   12   13   14        3      30.334     0.000 -30.334  -0.000  -0.000   0.000
  694   12   13  693        3      30.334     0.000 -30.334  -0.000  -0.000   0.000
  694   52  691   29        3       9.079     0.000  -9.079  -0.000  -0.000   0.000
  694   53   50   49        3      30.334     0.000 -30.334  -0.000  -0.000   0.000
  694   53   54   55        3      30.334     0.000 -30.334  -0.000  -0.000   0.000
  694   53   54  681        3      30.334     0.000 -30.334  -0.000  -0.000   0.000
  695   11   10  696        3      30.334     0.000 -30.334  -0.000  -0.000   0.000
  695  697    9   10        3       0.628     1.883   0.000  -2.510  -0.000   0.000
  696  323  322  319        3      30.334     0.000 -30.334  -0.000  -0.000   0.000
  696  327  328  329        3      30.334     0.000 -30.334  -0.000  -0.000   0.000
  697    9   10  696        3      30.334     0.000 -30.334  -0.000  -0.000   0.000
  698    8    7    6        3      30.334     0.000 -30.334  -0.000  -0.000   0.000
  698    8    7  699        3      30.334     0.000 -30.334  -0.000  -0.000   0.000
  698    8    9   10        3       0.628     1.883   0.000  -2.510  -0.000   0.000
  698    8    9  697        3       0.628     1.883   0.000  -2.510  -0.000   0.000
  698  328  327  696        3      30.334     0.000 -30.334  -0.000  -0.000   0.000
  698  328  329  340        3      30.334     0.000 -30.334  -0.000  -0.000   0.000
  698  339  330  329        3      30.334     0.000 -30.334  -0.000  -0.000   0.000
  698  339  330  331        3      30.334     0.000 -30.334  -0.000  -0.000   0.000
  698  339  701    5        3      30.334     0.000 -30.334  -0.000  -0.000   0.000
  699    7    6    5        3      30.334     0.000 -30.334  -0.000  -0.000   0.000
  699    7    6  700        3      30.334     0.000 -30.334  -0.000  -0.000   0.000
  699  546  545  544        3       6.234     0.000  -6.234  -0.000  -0.000   0.000
  699  546  545  700        3      30.334     0.000 -30.334  -0.000  -0.000   0.000
  699  546  680   56        3      14.355     0.000 -14.355  -0.000  -0.000   0.000
  699  546  680  547        3      14.355     0.000 -14.355  -0.000  -0.000   0.000
  699  697    9   10        3       0.628     1.883   0.000  -2.510  -0.000   0.000
  699  697  695   11        3       0.628     1.883   0.000  -2.510  -0.000   0.000
  699  697  695   55        3       0.628     1.883   0.000  -2.510  -0.000   0.000
  700    6    5    4        3      30.334     0.000 -30.334  -0.000  -0.000   0.000
  700    6    5  701        3      30.334     0.000 -30.334  -0.000  -0.000   0.000
  700    6    7    8        3      30.334     0.000 -30.334  -0.000  -0.000   0.000
  700  543  542  541        3      30.334     0.000 -30.334  -0.000  -0.000   0.000
  700  543  542  551        3      30.334     0.000 -30.334  -0.000  -0.000   0.000
  700  543  702    4        3      30.334     0.000 -30.334  -0.000  -0.000   0.000
  700  543  702  519        3      30.334     0.000 -30.334  -0.000  -0.000   0.000
  700  545  544  541        3      30.334     0.000 -30.334  -0.000  -0.000   0.000
  701    5    6    7        3      30.334     0.000 -30.334  -0.000  -0.000   0.000
  701  339  330  329        3      30.334     0.000 -30.334  -0.000  -0.000   0.000
  701  339  330  331        3      30.334     0.000 -30.334  -0.000  -0.000   0.000
  701  339  698    8        3      30.334     0.000 -30.334  -0.000  -0.000   0.000
  701  339  698  328        3      30.334     0.000 -30.334  -0.000  -0.000   0.000
  701  704    2    1        3      30.334     0.000 -30.334  -0.000  -0.000   0.000
  701  704  332  331        3      30.334     0.000 -30.334  -0.000  -0.000   0.000
  701  704  332  333        3      30.334     0.000 -30.334  -0.000  -0.000   0.000
  702    4    3    2        3      30.334     0.000 -30.334  -0.000  -0.000   0.000
  702    4    3  703        3      30.334     0.000 -30.334  -0.000  -0.000   0.000
  702    4    5    6        3      30.334     0.000 -30.334  -0.000  -0.000   0.000
  702    4    5  701        3      30.334     0.000 -30.334  -0.000  -0.000   0.000
  702  519  518  517        3      30.334     0.000 -30.334  -0.000  -0.000   0.000
  702  519  518  703        3      30.334     0.000 -30.334  -0.000  -0.000   0.000
  702  519  520  521        3      30.334     0.000 -30.334  -0.000  -0.000   0.000
  702  543  542  541        3      30.334     0.000 -30.334  -0.000  -0.000   0.000
  702  543  700    6        3      30.334     0.000 -30.334  -0.000  -0.000   0.000
  702  543  700  545        3      30.334     0.000 -30.334  -0.000  -0.000   0.000
  703    3    2    1        3      30.334     0.000 -30.334  -0.000  -0.000   0.000
  703    3    4    5        3      30.334     0.000 -30.334  -0.000  -0.000   0.000
  703  518  517  516        3      30.334     0.000 -30.334  -0.000  -0.000   0.000
  703  518  517  552        3      30.334     0.000 -30.334  -0.000  -0.000   0.000
  703  518  519  520        3      30.334     0.000 -30.334  -0.000  -0.000   0.000
  703  556  555  512        3      30.334     0.000 -30.334  -0.000  -0.000   0.000
  703  556  555  516        3      30.334     0.000 -30.334  -0.000  -0.000   0.000
  703  556  706    1        3      30.334     0.000 -30.334  -0.000  -0.000   0.000
  703  556  706  270        3      30.334     0.000 -30.334  -0.000  -0.000   0.000
  704    2    1  705        3      30.334     0.000 -30.334  -0.000  -0.000   0.000
  704    2    1  706        3      30.334     0.000 -30.334  -0.000  -0.000   0.000
  704    2    3    4        3      30.334     0.000 -30.334  -0.000  -0.000   0.000
  704    2    3  703        3      30.334     0.000 -30.334  -0.000  -0.000   0.000
  704  332  331  330        3      30.334     0.000 -30.334  -0.000  -0.000   0.000
  704  332  331  334        3      30.334     0.000 -30.334  -0.000  -0.000   0.000
  704  332  333  705        3      30.334     0.000 -30.334  -0.000  -0.000   0.000
  704  701    5    4        3      30.334     0.000 -30.334  -0.000  -0.000   0.000
  704  701    5    6        3      30.334     0.000 -30.334  -0.000  -0.000   0.000
  704  701  339  330        3      30.334     0.000 -30.334  -0.000  -0.000   0.000
  704  701  339  698        3      30.334     0.000 -30.334  -0.000  -0.000   0.000
  705  333  332  331        3      30.334     0.000 -30.334  -0.000  -0.000   0.000
  706    1  705  333        3      30.334     0.000 -30.334  -0.000  -0.000   0.000
  706  270  511  512        3      30.334     0.000 -30.334  -0.000  -0.000   0.000
  706  556  555  512        3      30.334     0.000 -30.334  -0.000  -0.000   0.000
  706  556  555  516        3      30.334     0.000 -30.334  -0.000  -0.000   0.000
[ pairs ]
     1     4    1
     1   269    1
     1   272    1
     1   508    1
     1   511    1
     1   701    1
     1   703    1
     2     5    1
     2   270    1
     2   271    1
     2   518    1
     2   556    1
     2   702    1
     3   517    1
     3   519    1
     3   543    1
     4   518    1
     4   542    1
     4   556    1
     4   700    1
     4   704    1
     5     8    1
     5   519    1
     5   543    1
     5   698    1
     5   699    1
     5   703    1
     6     3    1
     6   542    1
     6   546    1
     6   698    1
     6   702    1
     6   704    1
     7     4    1
     7   543    1
     7   680    1
     7   701    1
     8   546    1
     8   700    1
     9     6    1
     9    12    1
     9    55    1
     9   323    1
     9   546    1
    10     7    1
    10    13    1
    10    55    1
    10   322    1
    10   326    1
    10   693    1
    10   694    1
    10   698    1
    10   699    1
    11     8    1
    11    56    1
    11   323    1
    11   693    1
    11   699    1
    12   323    1
    12   343    1
    12   692    1
    13   315    1
    13   322    1
    14    11    1
    14   316    1
    14   323    1
    14   690    1
    14   694    1
    15    12    1
    15    23    1
    15    30    1
    15   315    1
    15   343    1
    15   693    1
    15   694    1
    16    13    1
    16    20    1
    16   692    1
    17    14    1
    17    22    1
    17    23    1
    18    15    1
    18    20    1
    18   690    1
    19    15    1
    19   690    1
    20    22    1
    21    16    1
    21    18    1
    21    25    1
    23    20    1
    24    16    1
    24    19    1
    24    22    1
    24    28    1
    24   689    1
    26    21    1
    26    29    1
    26    31    1
    26    41    1
    26   690    1
    27    16    1
    27    23    1
    27    25    1
    27    30    1
    27    32    1
    27    34    1
    27   691    1
    28    15    1
    28    17    1
    28    21    1
    28    31    1
    28    41    1
    28    52    1
    28   688    1
    29    14    1
    29    16    1
    29    23    1
    29    32    1
    29    51    1
    29   684    1
    29   689    1
    29   694    1
    30    41    1
    30   687    1
    30   690    1
    31    34    1
    31    42    1
    31   684    1
    32    35    1
    32    39    1
    32    41    1
    32    43    1
    32   688    1
    33    30    1
    33    36    1
    33    37    1
    33    40    1
    33    44    1
    33   684    1
    33   689    1
    34    38    1
    34   687    1
    35    40    1
    37    41    1
    38    36    1
    38    40    1
    39    34    1
    39    36    1
    41    36    1
    42    35    1
    42    38    1
    42    41    1
    42   687    1
    43    34    1
    43    37    1
    43    40    1
    43   685    1
    44    39    1
    44   687    1
    45    31    1
    45    33    1
    45    39    1
    45   686    1
    45   688    1
    46    32    1
    46    42    1
    46    44    1
    46    49    1
    46   688    1
    47    30    1
    47    32    1
    47    43    1
    47   682    1
    47   686    1
    48    45    1
    48   681    1
    48   686    1
    48   687    1
    48   688    1
    49    57    1
    49   685    1
    49   694    1
    50    12    1
    50    30    1
    50    47    1
    50   671    1
    50   681    1
    50   683    1
    50   684    1
    50   691    1
    51    12    1
    51    15    1
    51    31    1
    51    47    1
    51    48    1
    51   682    1
    51   687    1
    52    11    1
    52    13    1
    52    14    1
    52    16    1
    52    30    1
    52    49    1
    52   684    1
    53    11    1
    53    13    1
    53    48    1
    53    56    1
    53    57    1
    53   682    1
    53   688    1
    53   691    1
    54    11    1
    54    12    1
    54    49    1
    54    51    1
    54    52    1
    54    58    1
    54   671    1
    54   680    1
    55    12    1
    55    50    1
    55    58    1
    55   546    1
    55   547    1
    55   682    1
    55   694    1
    55   699    1
    56    59    1
    56   678    1
    56   679    1
    56   682    1
    56   699    1
    57   546    1
    57   547    1
    57   678    1
    58   539    1
    58   547    1
    58   669    1
    58   672    1
    58   680    1
    59   676    1
    59   680    1
    60    57    1
    60    91    1
    60   539    1
    60   547    1
    60   644    1
    60   672    1
    60   675    1
    60   679    1
    61    58    1
    61    89    1
    61    92    1
    61   540    1
    61   669    1
    61   670    1
    61   678    1
    62    59    1
    62    88    1
    62    91    1
    62   664    1
    62   672    1
    62   673    1
    62   677    1
    62   679    1
    63    60    1
    63    66    1
    63    89    1
    63    92    1
    63   650    1
    63   663    1
    63   665    1
    63   669    1
    63   676    1
    64    61    1
    64    88    1
    64   649    1
    64   662    1
    64   664    1
    64   672    1
    64   675    1
    65    62    1
    65    89    1
    65   650    1
    65   651    1
    65   665    1
    65   674    1
    66   649    1
    66   658    1
    66   673    1
    67    64    1
    67    80    1
    67   650    1
    67   651    1
    67   657    1
    67   661    1
    67   663    1
    68    65    1
    68    71    1
    68    79    1
    68    82    1
    68   655    1
    68   660    1
    68   662    1
    69    66    1
    69    73    1
    69    75    1
    69    76    1
    69    80    1
    69   651    1
    69   659    1
    70    67    1
    70    75    1
    70   655    1
    70   658    1
    71    73    1
    72    68    1
    72    76    1
    72   655    1
    72   656    1
    74    68    1
    74    71    1
    74    77    1
    74    80    1
    74   141    1
    75    73    1
    75    78    1
    75    80    1
    75   134    1
    75   654    1
    76    79    1
    76   131    1
    76   141    1
    76   653    1
    76   658    1
    77    81    1
    77   126    1
    77   130    1
    77   132    1
    77   134    1
    77   657    1
    78    82    1
    78   125    1
    78   129    1
    78   131    1
    78   141    1
    78   652    1
    78   658    1
    79    83    1
    79   126    1
    79   130    1
    79   648    1
    79   651    1
    79   654    1
    79   657    1
    80    77    1
    80    82    1
    80   652    1
    80   653    1
    80   662    1
    81   658    1
    81   662    1
    82    66    1
    83   127    1
    83   647    1
    83   652    1
    83   658    1
    83   662    1
    83   673    1
    84    81    1
    84    87    1
    84   126    1
    84   128    1
    84   153    1
    84   646    1
    84   650    1
    84   651    1
    85    82    1
    85    88    1
    85   100    1
    85   152    1
    85   641    1
    85   645    1
    85   649    1
    85   652    1
    86    83    1
    86    89    1
    86    97    1
    86   128    1
    86   153    1
    86   650    1
    87    82    1
    87   641    1
    87   662    1
    87   673    1
    87   675    1
    88    83    1
    88   646    1
    88   650    1
    90    86    1
    90   641    1
    90   644    1
    90   649    1
    90   673    1
    90   675    1
    91    87    1
    91    89    1
    91    95    1
    91   535    1
    91   540    1
    91   643    1
    91   646    1
    92    59    1
    92    88    1
    92    94    1
    92   539    1
    92   644    1
    92   645    1
    92   673    1
    93    88    1
    93    96    1
    93   534    1
    93   536    1
    93   539    1
    93   549    1
    93   645    1
    93   675    1
    94    90    1
    94    97    1
    94   533    1
    94   535    1
    94   540    1
    94   548    1
    94   642    1
    94   646    1
    95    86    1
    95    88    1
    95    98    1
    95   156    1
    95   534    1
    95   549    1
    95   641    1
    95   644    1
    96    90    1
    96   153    1
    96   155    1
    96   643    1
    96   646    1
    97   154    1
    97   156    1
    97   640    1
    98   153    1
    98   613    1
    98   646    1
    99    96    1
    99   102    1
    99   152    1
    99   156    1
    99   640    1
    99   641    1
   100    97    1
   100   103    1
   100   104    1
   100   128    1
   100   151    1
   100   155    1
   100   646    1
   101    98    1
   101   105    1
   101   154    1
   101   641    1
   102   128    1
   102   151    1
   102   153    1
   103   105    1
   103   152    1
   104   150    1
   104   152    1
   105   108    1
   105   128    1
   106   102    1
   106   110    1
   106   152    1
   107   104    1
   107   151    1
   108   110    1
   109   105    1
   109   149    1
   111   105    1
   111   108    1
   111   114    1
   112   106    1
   112   107    1
   112   110    1
   112   116    1
   113   109    1
   113   147    1
   113   150    1
   114   116    1
   115   111    1
   117   112    1
   117   114    1
   117   120    1
   117   143    1
   118   111    1
   118   113    1
   118   116    1
   118   129    1
   118   145    1
   118   148    1
   119   112    1
   119   115    1
   119   125    1
   119   130    1
   119   131    1
   119   143    1
   119   147    1
   120   112    1
   120   131    1
   120   150    1
   121   106    1
   121   111    1
   121   113    1
   121   117    1
   121   124    1
   121   125    1
   121   130    1
   121   146    1
   121   151    1
   122   105    1
   122   107    1
   122   109    1
   122   112    1
   122   118    1
   122   119    1
   122   125    1
   122   127    1
   122   129    1
   122   152    1
   123   101    1
   123   104    1
   123   106    1
   123   111    1
   123   120    1
   123   126    1
   123   128    1
   123   129    1
   123   149    1
   123   648    1
   124    84    1
   124   105    1
   124   120    1
   124   130    1
   124   150    1
   124   152    1
   124   647    1
   124   652    1
   124   653    1
   125    81    1
   125   128    1
   125   131    1
   125   151    1
   126    82    1
   126   120    1
   126   131    1
   127    81    1
   127    85    1
   127   101    1
   127   126    1
   127   129    1
   127   151    1
   127   153    1
   128   641    1
   128   652    1
   130   141    1
   130   652    1
   132   118    1
   132   120    1
   132   129    1
   132   139    1
   132   141    1
   132   143    1
   132   147    1
   132   653    1
   133   119    1
   133   130    1
   133   136    1
   133   137    1
   133   140    1
   133   144    1
   133   145    1
   134   131    1
   134   138    1
   134   139    1
   134   143    1
   134   146    1
   135   132    1
   135   140    1
   135   142    1
   138   136    1
   139   136    1
   139   144    1
   140   138    1
   141   136    1
   141   137    1
   142   131    1
   142   138    1
   142   141    1
   143   137    1
   143   140    1
   145   115    1
   145   120    1
   145   131    1
   145   139    1
   146   117    1
   146   129    1
   146   130    1
   146   142    1
   146   144    1
   146   148    1
   146   149    1
   147   116    1
   147   142    1
   147   144    1
   147   149    1
   148   115    1
   148   143    1
   149   114    1
   149   115    1
   149   129    1
   149   150    1
   150   108    1
   150   110    1
   151   150    1
   152   153    1
   153   154    1
   155   154    1
   155   614    1
   155   639    1
   155   641    1
   156   613    1
   156   614    1
   156   637    1
   156   638    1
   156   643    1
   157    96    1
   157    98    1
   157   529    1
   157   613    1
   157   615    1
   157   634    1
   157   640    1
   158   155    1
   158   161    1
   158   531    1
   158   614    1
   158   634    1
   159   156    1
   159   529    1
   159   589    1
   159   614    1
   159   635    1
   160   157    1
   160   164    1
   160   529    1
   160   588    1
   160   590    1
   160   634    1
   160   638    1
   160   639    1
   161   589    1
   161   594    1
   161   637    1
   162   159    1
   162   590    1
   162   603    1
   162   614    1
   162   636    1
   162   639    1
   163   160    1
   163   590    1
   163   602    1
   163   604    1
   163   631    1
   163   632    1
   163   637    1
   164   589    1
   164   594    1
   164   595    1
   164   596    1
   164   602    1
   164   603    1
   164   634    1
   165   161    1
   165   162    1
   165   590    1
   165   592    1
   165   594    1
   165   597    1
   165   601    1
   165   603    1
   166   163    1
   166   170    1
   166   590    1
   166   593    1
   166   597    1
   166   602    1
   166   635    1
   167   164    1
   167   171    1
   167   591    1
   167   593    1
   167   596    1
   167   632    1
   167   635    1
   168   165    1
   168   171    1
   168   582    1
   168   586    1
   168   590    1
   168   596    1
   169   166    1
   169   172    1
   169   173    1
   169   177    1
   169   178    1
   169   183    1
   169   588    1
   169   590    1
   169   593    1
   169   595    1
   170   586    1
   170   587    1
   171   527    1
   171   586    1
   171   590    1
   171   591    1
   172   526    1
   172   553    1
   172   591    1
   172   594    1
   173   170    1
   173   527    1
   173   582    1
   173   588    1
   174   171    1
   174   583    1
   174   587    1
   174   591    1
   175   172    1
   175   255    1
   175   586    1
   176   173    1
   176   180    1
   176   254    1
   176   582    1
   176   591    1
   177   172    1
   177   174    1
   177   180    1
   177   183    1
   177   255    1
   178   173    1
   178   175    1
   178   181    1
   178   182    1
   178   184    1
   178   255    1
   178   581    1
   179   175    1
   179   182    1
   179   183    1
   179   250    1
   179   253    1
   179   254    1
   179   580    1
   179   586    1
   179   591    1
   180   251    1
   180   254    1
   180   255    1
   180   582    1
   181   253    1
   181   583    1
   182   185    1
   182   187    1
   182   190    1
   182   251    1
   182   581    1
   182   591    1
   183   180    1
   183   187    1
   183   580    1
   183   586    1
   184   181    1
   184   591    1
   185   187    1
   185   582    1
   186   181    1
   186   190    1
   186   582    1
   188   180    1
   188   185    1
   188   580    1
   188   582    1
   189   181    1
   189   183    1
   189   184    1
   189   187    1
   189   193    1
   189   251    1
   191   180    1
   191   182    1
   191   186    1
   191   250    1
   191   579    1
   192   181    1
   192   188    1
   192   190    1
   192   196    1
   192   251    1
   194   189    1
   194   250    1
   194   580    1
   195   191    1
   195   193    1
   195   199    1
   195   251    1
   197   192    1
   197   579    1
   198   194    1
   198   196    1
   198   248    1
   200   195    1
   200   576    1
   200   578    1
   201   197    1
   201   199    1
   201   204    1
   201   245    1
   201   246    1
   201   248    1
   202   198    1
   202   244    1
   202   575    1
   202   578    1
   203   200    1
   203   208    1
   203   211    1
   203   245    1
   205   201    1
   205   209    1
   205   210    1
   205   212    1
   205   244    1
   205   576    1
   206   202    1
   206   204    1
   206   211    1
   206   245    1
   207   203    1
   207   209    1
   207   210    1
   207   575    1
   211   209    1
   211   244    1
   211   576    1
   212   208    1
   212   243    1
   212   245    1
   212   572    1
   213   210    1
   213   244    1
   213   407    1
   213   571    1
   213   573    1
   213   575    1
   214   211    1
   214   406    1
   214   408    1
   214   569    1
   214   574    1
   215   212    1
   215   244    1
   215   403    1
   215   405    1
   215   407    1
   215   570    1
   215   573    1
   216   211    1
   216   213    1
   216   243    1
   216   245    1
   216   406    1
   216   567    1
   216   569    1
   216   572    1
   217   212    1
   217   214    1
   217   244    1
   217   259    1
   217   403    1
   217   568    1
   217   571    1
   218   215    1
   218   243    1
   218   402    1
   218   404    1
   218   406    1
   218   567    1
   218   574    1
   219   216    1
   219   259    1
   219   401    1
   219   403    1
   219   566    1
   219   570    1
   219   571    1
   220   217    1
   220   230    1
   220   234    1
   220   243    1
   220   402    1
   220   569    1
   221   218    1
   221   233    1
   221   259    1
   221   402    1
   221   565    1
   221   570    1
   222   218    1
   222   230    1
   222   234    1
   222   401    1
   222   403    1
   222   564    1
   222   567    1
   223   219    1
   223   220    1
   223   401    1
   223   402    1
   223   442    1
   223   563    1
   223   566    1
   224   221    1
   224   230    1
   224   400    1
   224   402    1
   224   417    1
   224   440    1
   224   441    1
   224   568    1
   225   222    1
   225   230    1
   225   401    1
   225   437    1
   225   439    1
   225   442    1
   225   562    1
   226   222    1
   226   440    1
   226   441    1
   226   503    1
   226   561    1
   226   564    1
   226   566    1
   227   223    1
   227   224    1
   227   230    1
   227   267    1
   227   439    1
   227   502    1
   227   504    1
   227   563    1
   228   225    1
   228   440    1
   228   503    1
   228   510    1
   228   560    1
   228   565    1
   228   566    1
   229   221    1
   229   223    1
   229   226    1
   229   233    1
   229   234    1
   229   267    1
   229   504    1
   229   562    1
   231   227    1
   231   234    1
   231   260    1
   231   263    1
   231   561    1
   231   565    1
   231   566    1
   232   228    1
   232   230    1
   232   263    1
   232   267    1
   232   566    1
   233   230    1
   233   254    1
   233   259    1
   234   565    1
   235   220    1
   235   221    1
   235   230    1
   235   232    1
   235   252    1
   235   258    1
   235   570    1
   236   232    1
   236   249    1
   236   253    1
   236   254    1
   236   257    1
   236   566    1
   236   567    1
   237   233    1
   237   234    1
   237   246    1
   237   247    1
   237   250    1
   237   254    1
   237   258    1
   237   567    1
   237   581    1
   238   220    1
   238   234    1
   238   243    1
   238   247    1
   238   249    1
   238   253    1
   238   260    1
   238   570    1
   239   235    1
   239   236    1
   239   244    1
   239   248    1
   239   249    1
   239   252    1
   239   567    1
   239   570    1
   239   576    1
   240   202    1
   240   217    1
   240   237    1
   240   245    1
   240   247    1
   240   259    1
   240   567    1
   240   574    1
   241   201    1
   241   203    1
   241   238    1
   241   244    1
   241   247    1
   241   570    1
   241   575    1
   241   578    1
   242   197    1
   242   200    1
   242   202    1
   242   238    1
   242   243    1
   242   245    1
   242   248    1
   242   249    1
   243   259    1
   244   567    1
   245   210    1
   245   570    1
   246   243    1
   246   250    1
   246   259    1
   246   576    1
   246   579    1
   247   194    1
   247   197    1
   247   251    1
   247   253    1
   247   581    1
   248   192    1
   248   195    1
   248   250    1
   248   580    1
   249   180    1
   249   254    1
   249   578    1
   249   579    1
   249   580    1
   250   181    1
   250   254    1
   251   253    1
   252   180    1
   252   246    1
   252   248    1
   252   251    1
   252   255    1
   255   260    1
   255   581    1
   256   174    1
   256   176    1
   256   179    1
   256   232    1
   256   253    1
   256   260    1
   256   262    1
   256   263    1
   256   558    1
   257   175    1
   257   231    1
   257   233    1
   257   253    1
   257   263    1
   257   559    1
   257   560    1
   257   583    1
   258   232    1
   258   234    1
   258   252    1
   258   262    1
   258   581    1
   258   583    1
   258   584    1
   259   252    1
   259   260    1
   259   566    1
   260   252    1
   260   253    1
   260   566    1
   261   229    1
   261   234    1
   261   254    1
   261   255    1
   261   260    1
   261   264    1
   261   267    1
   262   229    1
   262   233    1
   262   561    1
   263   175    1
   265   262    1
   265   510    1
   265   560    1
   265   561    1
   266   228    1
   266   231    1
   266   262    1
   266   263    1
   266   271    1
   266   504    1
   266   509    1
   267   263    1
   267   264    1
   268   264    1
   268   272    1
   268   503    1
   268   506    1
   268   511    1
   268   560    1
   268   561    1
   269   265    1
   269   267    1
   269   273    1
   269   504    1
   269   509    1
   269   556    1
   270   264    1
   270   266    1
   270   272    1
   270   510    1
   270   703    1
   271   510    1
   272   337    1
   272   502    1
   272   504    1
   272   507    1
   273   338    1
   273   491    1
   273   510    1
   274   271    1
   274   290    1
   274   337    1
   274   490    1
   274   502    1
   274   505    1
   274   509    1
   275   272    1
   275   338    1
   275   491    1
   275   499    1
   275   503    1
   275   508    1
   275   510    1
   276   273    1
   276   289    1
   276   290    1
   276   500    1
   276   502    1
   276   507    1
   276   509    1
   277   274    1
   277   435    1
   277   438    1
   277   491    1
   277   499    1
   277   503    1
   278   275    1
   278   289    1
   278   434    1
   278   437    1
   278   439    1
   278   498    1
   278   502    1
   278   505    1
   279   276    1
   279   288    1
   279   427    1
   279   435    1
   279   438    1
   279   491    1
   279   497    1
   279   501    1
   280   277    1
   280   285    1
   280   289    1
   280   426    1
   280   434    1
   280   496    1
   280   500    1
   280   505    1
   281   278    1
   281   286    1
   281   288    1
   281   427    1
   281   429    1
   281   435    1
   281   495    1
   281   499    1
   282   279    1
   282   285    1
   282   289    1
   282   369    1
   282   426    1
   282   428    1
   282   430    1
   282   498    1
   283   280    1
   283   286    1
   283   365    1
   283   370    1
   283   427    1
   283   429    1
   283   473    1
   283   497    1
   284   281    1
   284   287    1
   284   289    1
   284   364    1
   284   367    1
   284   369    1
   284   430    1
   284   493    1
   284   496    1
   285   288    1
   285   365    1
   285   479    1
   285   492    1
   285   499    1
   286   289    1
   286   290    1
   286   292    1
   286   364    1
   286   475    1
   286   480    1
   287   291    1
   287   293    1
   287   365    1
   287   479    1
   287   488    1
   287   491    1
   287   497    1
   287   499    1
   288   480    1
   288   493    1
   288   505    1
   290   497    1
   291   289    1
   291   294    1
   291   480    1
   291   505    1
   291   507    1
   292   288    1
   292   295    1
   292   338    1
   292   479    1
   292   488    1
   292   491    1
   293   290    1
   293   296    1
   293   478    1
   293   487    1
   293   490    1
   294   297    1
   295   478    1
   295   489    1
   296   476    1
   296   482    1
   297   483    1
   298   295    1
   298   320    1
   298   325    1
   298   344    1
   298   482    1
   298   486    1
   299   296    1
   299   321    1
   299   350    1
   299   477    1
   299   478    1
   299   485    1
   300   297    1
   300   351    1
   300   482    1
   300   484    1
   300   486    1
   301   298    1
   301   321    1
   301   349    1
   302   297    1
   302   299    1
   302   305    1
   302   308    1
   302   320    1
   302   344    1
   302   351    1
   303   298    1
   303   300    1
   303   306    1
   303   307    1
   303   309    1
   303   317    1
   303   321    1
   303   350    1
   304   301    1
   304   308    1
   304   344    1
   304   345    1
   304   351    1
   304   484    1
   305   346    1
   305   349    1
   305   350    1
   306   345    1
   307   314    1
   307   344    1
   308   306    1
   308   311    1
   308   315    1
   308   317    1
   308   321    1
   308   346    1
   309   305    1
   309   316    1
   309   318    1
   309   344    1
   309   345    1
   309   692    1
   310   307    1
   310   315    1
   310   317    1
   310   346    1
   310   349    1
   312   305    1
   312   308    1
   312   314    1
   313   307    1
   313   309    1
   313   311    1
   313   346    1
   314    14    1
   314   311    1
   314   343    1
   314   349    1
   315   344    1
   317   316    1
   317   322    1
   317   692    1
   317   693    1
   318    13    1
   318    14    1
   318   315    1
   318   323    1
   318   324    1
   318   349    1
   318   485    1
   319   297    1
   319   314    1
   319   325    1
   319   326    1
   319   344    1
   319   692    1
   319   693    1
   319   696    1
   320   296    1
   320   317    1
   320   323    1
   320   324    1
   320   343    1
   320   349    1
   320   487    1
   321   297    1
   321   314    1
   321   318    1
   321   322    1
   321   325    1
   322   341    1
   322   485    1
   322   487    1
   323   325    1
   323   326    1
   324   295    1
   324   297    1
   324   340    1
   324   342    1
   325   294    1
   325   296    1
   325   489    1
   327     8    1
   327     9    1
   327    11    1
   327   322    1
   327   325    1
   327   340    1
   327   342    1
   327   693    1
   328     7    1
   328     9    1
   328    10    1
   328   323    1
   328   324    1
   328   331    1
   328   335    1
   328   341    1
   328   701    1
   329     8    1
   329   326    1
   329   332    1
   329   334    1
   329   336    1
   329   342    1
   329   696    1
   329   701    1
   330     5    1
   330     8    1
   330   327    1
   330   333    1
   330   335    1
   330   337    1
   330   341    1
   330   704    1
   331     2    1
   331   336    1
   331   338    1
   331   508    1
   331   698    1
   331   701    1
   331   705    1
   332     1    1
   332     3    1
   332     5    1
   332   271    1
   332   273    1
   332   337    1
   333     2    1
   333   269    1
   333   272    1
   333   274    1
   333   338    1
   333   701    1
   333   706    1
   334   273    1
   334   333    1
   334   489    1
   334   490    1
   334   507    1
   334   704    1
   335   291    1
   335   293    1
   335   326    1
   335   332    1
   335   338    1
   335   508    1
   336   290    1
   336   292    1
   336   294    1
   336   487    1
   336   507    1
   337   291    1
   337   336    1
   337   491    1
   338   290    1
   338   505    1
   339     2    1
   339     4    1
   339     6    1
   339     7    1
   339     9    1
   339   327    1
   339   332    1
   339   334    1
   339   340    1
   340   331    1
   340   337    1
   340   487    1
   340   489    1
   340   490    1
   340   698    1
   341   293    1
   341   295    1
   341   325    1
   341   334    1
   341   336    1
   342   292    1
   342   294    1
   342   296    1
   342   335    1
   342   485    1
   342   490    1
   343   316    1
   343   322    1
   344   343    1
   345   311    1
   347   300    1
   347   302    1
   347   306    1
   347   307    1
   347   349    1
   348   301    1
   348   303    1
   348   305    1
   348   351    1
   349   345    1
   352   298    1
   352   302    1
   352   350    1
   352   477    1
   352   483    1
   353   299    1
   353   301    1
   353   476    1
   353   481    1
   353   486    1
   354   300    1
   354   358    1
   354   477    1
   354   483    1
   355   352    1
   355   481    1
   355   482    1
   356   352    1
   356   476    1
   356   482    1
   357   353    1
   357   355    1
   357   361    1
   357   477    1
   359   354    1
   359   481    1
   360   356    1
   360   358    1
   360   477    1
   362   354    1
   362   357    1
   362   365    1
   362   366    1
   362   476    1
   362   479    1
   362   482    1
   363   356    1
   363   359    1
   363   361    1
   363   367    1
   363   477    1
   363   478    1
   363   480    1
   363   493    1
   364   360    1
   364   474    1
   364   476    1
   364   479    1
   364   481    1
   366   471    1
   366   472    1
   366   493    1
   367   365    1
   367   466    1
   367   469    1
   368   283    1
   368   285    1
   368   364    1
   368   371    1
   368   430    1
   368   471    1
   368   472    1
   368   473    1
   368   493    1
   369   365    1
   369   366    1
   369   429    1
   369   459    1
   369   472    1
   369   474    1
   370   367    1
   370   374    1
   370   429    1
   370   431    1
   370   465    1
   370   466    1
   370   474    1
   371   367    1
   371   374    1
   371   430    1
   371   459    1
   371   463    1
   371   467    1
   371   471    1
   371   495    1
   372   369    1
   372   375    1
   372   457    1
   372   459    1
   372   464    1
   372   467    1
   372   473    1
   372   474    1
   373   370    1
   373   376    1
   373   431    1
   373   456    1
   373   458    1
   373   463    1
   373   466    1
   373   472    1
   373   473    1
   374   453    1
   374   457    1
   374   465    1
   375   432    1
   375   452    1
   375   454    1
   375   458    1
   375   473    1
   376   379    1
   376   424    1
   376   428    1
   376   450    1
   376   451    1
   376   453    1
   376   457    1
   376   459    1
   377   374    1
   377   449    1
   377   454    1
   377   456    1
   378   375    1
   378   383    1
   378   450    1
   378   453    1
   379   382    1
   379   384    1
   379   452    1
   380   377    1
   380   383    1
   380   385    1
   380   388    1
   380   394    1
   380   396    1
   380   422    1
   380   450    1
   380   451    1
   381   378    1
   381   384    1
   381   386    1
   381   387    1
   381   389    1
   381   392    1
   381   395    1
   381   449    1
   383   386    1
   383   387    1
   385   384    1
   385   389    1
   387   390    1
   387   446    1
   388   382    1
   388   386    1
   388   391    1
   388   392    1
   389   393    1
   391   393    1
   391   446    1
   392   446    1
   394   382    1
   394   387    1
   394   389    1
   394   391    1
   394   445    1
   395   379    1
   395   388    1
   395   390    1
   395   393    1
   395   444    1
   395   451    1
   396   392    1
   396   399    1
   396   410    1
   396   416    1
   396   447    1
   397   394    1
   397   400    1
   397   404    1
   397   409    1
   397   411    1
   397   417    1
   398   395    1
   398   401    1
   398   410    1
   398   416    1
   398   418    1
   398   442    1
   399   402    1
   399   404    1
   399   444    1
   399   445    1
   399   564    1
   400   405    1
   400   410    1
   400   568    1
   401   444    1
   401   569    1
   402   416    1
   402   571    1
   403   400    1
   403   406    1
   403   444    1
   403   564    1
   404   401    1
   404   407    1
   404   410    1
   404   568    1
   404   571    1
   405   402    1
   405   408    1
   405   444    1
   405   569    1
   405   572    1
   406   410    1
   406   573    1
   407   569    1
   408   571    1
   408   573    1
   409   403    1
   409   407    1
   409   412    1
   409   414    1
   409   571    1
   410   414    1
   411   405    1
   413   405    1
   413   444    1
   414   412    1
   415   404    1
   415   406    1
   415   412    1
   415   444    1
   416   406    1
   416   409    1
   416   411    1
   416   564    1
   417   401    1
   417   416    1
   417   434    1
   417   563    1
   418   400    1
   418   433    1
   418   435    1
   418   445    1
   418   564    1
   419   396    1
   419   397    1
   419   399    1
   419   422    1
   419   426    1
   419   434    1
   419   437    1
   419   442    1
   420   398    1
   420   417    1
   420   423    1
   420   427    1
   420   432    1
   420   435    1
   420   436    1
   420   445    1
   421   396    1
   421   418    1
   421   426    1
   421   434    1
   421   443    1
   421   448    1
   421   451    1
   422   378    1
   422   395    1
   422   397    1
   422   398    1
   422   432    1
   422   433    1
   423   377    1
   423   379    1
   423   381    1
   423   394    1
   423   396    1
   423   443    1
   424   378    1
   424   419    1
   424   423    1
   424   427    1
   424   429    1
   424   433    1
   424   445    1
   425   420    1
   425   422    1
   425   434    1
   425   451    1
   425   459    1
   425   496    1
   425   498    1
   426   429    1
   426   435    1
   428   374    1
   428   421    1
   428   427    1
   428   432    1
   428   433    1
   428   473    1
   428   495    1
   429   459    1
   429   498    1
   430   374    1
   430   425    1
   430   427    1
   430   431    1
   431   375    1
   431   377    1
   431   424    1
   431   426    1
   431   451    1
   431   496    1
   432   377    1
   432   379    1
   432   426    1
   433   496    1
   433   498    1
   434   427    1
   435   496    1
   436   399    1
   436   426    1
   436   498    1
   436   563    1
   437   417    1
   437   433    1
   437   435    1
   437   564    1
   438   418    1
   438   434    1
   438   442    1
   438   498    1
   438   502    1
   438   562    1
   438   563    1
   439   276    1
   439   435    1
   439   436    1
   439   441    1
   439   503    1
   440   277    1
   440   437    1
   440   442    1
   440   500    1
   440   502    1
   440   504    1
   441   399    1
   441   401    1
   441   418    1
   441   434    1
   441   562    1
   442   400    1
   442   402    1
   442   436    1
   443   395    1
   443   400    1
   443   417    1
   443   433    1
   443   436    1
   443   444    1
   444   412    1
   444   445    1
   447   379    1
   447   383    1
   447   385    1
   447   390    1
   447   393    1
   447   446    1
   448   378    1
   448   382    1
   448   392    1
   448   397    1
   448   432    1
   448   445    1
   448   447    1
   448   449    1
   449   385    1
   450   382    1
   450   384    1
   450   454    1
   451   445    1
   451   449    1
   452   383    1
   452   451    1
   452   457    1
   453   449    1
   453   458    1
   454   457    1
   455   374    1
   455   378    1
   455   421    1
   455   423    1
   455   425    1
   455   429    1
   455   452    1
   455   456    1
   455   473    1
   456   450    1
   459   432    1
   459   456    1
   459   495    1
   460   371    1
   460   375    1
   460   453    1
   460   459    1
   460   464    1
   460   465    1
   461   372    1
   461   374    1
   461   456    1
   461   458    1
   461   466    1
   462   373    1
   462   457    1
   462   464    1
   462   465    1
   463   457    1
   463   467    1
   463   472    1
   464   466    1
   465   468    1
   465   469    1
   466   470    1
   466   471    1
   468   470    1
   468   471    1
   472   468    1
   472   469    1
   472   473    1
   474   465    1
   474   467    1
   474   470    1
   475   360    1
   475   365    1
   475   366    1
   475   481    1
   475   482    1
   475   486    1
   475   488    1
   476   294    1
   476   480    1
   476   483    1
   476   493    1
   477   479    1
   477   488    1
   478   297    1
   478   482    1
   479   294    1
   479   478    1
   480   293    1
   480   295    1
   480   365    1
   480   486    1
   481   358    1
   481   361    1
   481   478    1
   481   483    1
   483   295    1
   483   301    1
   483   484    1
   483   488    1
   484   296    1
   484   317    1
   484   319    1
   484   349    1
   484   350    1
   484   485    1
   485   295    1
   485   326    1
   485   344    1
   486   294    1
   486   477    1
   486   485    1
   486   487    1
   487   297    1
   487   326    1
   488   296    1
   488   487    1
   488   493    1
   489   291    1
   489   326    1
   489   338    1
   489   488    1
   490   288    1
   490   491    1
   490   508    1
   491   289    1
   492   289    1
   492   290    1
   492   294    1
   492   475    1
   492   478    1
   492   489    1
   492   490    1
   492   493    1
   494   282    1
   494   286    1
   494   363    1
   494   366    1
   494   370    1
   494   474    1
   494   479    1
   494   495    1
   494   497    1
   495   285    1
   495   367    1
   495   496    1
   496   473    1
   497   493    1
   497   496    1
   497   498    1
   497   505    1
   499   290    1
   499   498    1
   499   507    1
   500   427    1
   500   433    1
   500   436    1
   500   441    1
   500   499    1
   501   275    1
   501   437    1
   501   500    1
   501   504    1
   501   505    1
   501   509    1
   501   562    1
   501   563    1
   502   510    1
   502   561    1
   503   267    1
   503   509    1
   504   560    1
   506   271    1
   506   273    1
   506   277    1
   506   439    1
   506   504    1
   506   505    1
   506   507    1
   506   562    1
   507   288    1
   508   271    1
   508   507    1
   508   509    1
   508   704    1
   509   561    1
   510   267    1
   511   263    1
   511   267    1
   511   271    1
   511   556    1
   512   264    1
   512   266    1
   512   269    1
   512   515    1
   512   517    1
   512   703    1
   512   706    1
   513   263    1
   513   265    1
   513   270    1
   513   516    1
   513   553    1
   513   556    1
   513   587    1
   514   172    1
   514   174    1
   514   264    1
   514   511    1
   514   517    1
   514   527    1
   514   530    1
   514   555    1
   515   518    1
   515   556    1
   516   511    1
   516   519    1
   516   527    1
   516   530    1
   516   703    1
   516   706    1
   517   553    1
   517   556    1
   517   702    1
   518   543    1
   518   551    1
   519   537    1
   519   542    1
   519   552    1
   519   556    1
   519   700    1
   520     4    1
   520   517    1
   520   523    1
   520   530    1
   520   543    1
   520   550    1
   520   703    1
   521   516    1
   521   518    1
   521   524    1
   521   531    1
   521   533    1
   521   537    1
   521   542    1
   521   553    1
   521   702    1
   522   517    1
   522   519    1
   522   525    1
   522   529    1
   522   530    1
   522   532    1
   522   551    1
   523   526    1
   523   537    1
   523   552    1
   523   553    1
   523   638    1
   524   515    1
   524   517    1
   524   527    1
   524   529    1
   524   588    1
   524   636    1
   525   160    1
   525   171    1
   525   531    1
   525   552    1
   525   553    1
   525   587    1
   525   589    1
   525   638    1
   526   170    1
   526   515    1
   526   529    1
   526   530    1
   526   636    1
   527   552    1
   528   158    1
   528   159    1
   528   161    1
   528   523    1
   528   527    1
   528   530    1
   528   588    1
   528   590    1
   530   518    1
   531   530    1
   532   158    1
   532   524    1
   532   528    1
   532   537    1
   532   642    1
   532   643    1
   533   523    1
   533   529    1
   533   549    1
   533   551    1
   533   638    1
   533   644    1
   534   522    1
   534   531    1
   534   537    1
   534   540    1
   534   548    1
   534   642    1
   535   532    1
   535   539    1
   535   549    1
   535   550    1
   535   551    1
   536   520    1
   536   522    1
   536   533    1
   536   540    1
   536   542    1
   536   643    1
   536   678    1
   538    59    1
   538   534    1
   538   543    1
   538   547    1
   538   550    1
   538   551    1
   538   644    1
   539   537    1
   539   542    1
   539   680    1
   540    59    1
   540   547    1
   540   675    1
   541   520    1
   541   535    1
   541   537    1
   541   540    1
   541   546    1
   541   678    1
   541   680    1
   541   700    1
   541   702    1
   542   547    1
   543   537    1
   543   546    1
   544     6    1
   544    56    1
   544    59    1
   544   536    1
   544   539    1
   544   543    1
   544   551    1
   544   699    1
   545     5    1
   545     7    1
   545    56    1
   545   538    1
   545   542    1
   545   678    1
   545   702    1
   547   699    1
   548    96    1
   548   156    1
   548   157    1
   548   159    1
   548   523    1
   548   528    1
   549    97    1
   549   155    1
   549   157    1
   549   158    1
   549   529    1
   549   531    1
   550   524    1
   550   531    1
   550   542    1
   550   548    1
   550   552    1
   550   643    1
   551   700    1
   552   515    1
   552   551    1
   552   703    1
   554   171    1
   554   173    1
   554   175    1
   554   512    1
   554   516    1
   554   526    1
   554   553    1
   555     1    1
   555     3    1
   555   265    1
   555   270    1
   555   518    1
   555   552    1
   555   553    1
   557   174    1
   557   262    1
   557   266    1
   557   511    1
   557   515    1
   557   554    1
   557   555    1
   558   173    1
   558   175    1
   558   262    1
   558   265    1
   558   512    1
   558   514    1
   558   587    1
   559   174    1
   559   176    1
   559   255    1
   559   261    1
   559   265    1
   559   513    1
   559   554    1
   559   560    1
   560   230    1
   560   233    1
   560   264    1
   561   230    1
   562   510    1
   562   561    1
   562   565    1
   563   503    1
   563   564    1
   563   565    1
   564   565    1
   566   568    1
   567   234    1
   567   566    1
   568   564    1
   568   565    1
   568   567    1
   569   416    1
   569   568    1
   570   569    1
   572   571    1
   574   210    1
   574   570    1
   574   571    1
   574   576    1
   575   204    1
   575   208    1
   575   243    1
   575   574    1
   576   204    1
   576   243    1
   577   195    1
   577   198    1
   577   203    1
   577   239    1
   577   240    1
   577   247    1
   577   576    1
   577   579    1
   578   194    1
   578   196    1
   578   199    1
   578   246    1
   578   251    1
   579   181    1
   579   193    1
   579   196    1
   580   190    1
   580   193    1
   580   581    1
   581   579    1
   581   583    1
   582   170    1
   582   181    1
   583   253    1
   583   582    1
   584   173    1
   584   177    1
   584   254    1
   584   261    1
   584   262    1
   584   264    1
   584   557    1
   584   583    1
   584   585    1
   585   172    1
   585   176    1
   585   263    1
   585   264    1
   585   513    1
   585   515    1
   585   527    1
   585   586    1
   586   583    1
   586   587    1
   587   515    1
   587   530    1
   588   553    1
   588   587    1
   588   594    1
   588   635    1
   589   167    1
   589   170    1
   589   172    1
   589   527    1
   589   529    1
   590   526    1
   591   594    1
   592   170    1
   592   591    1
   592   594    1
   593   596    1
   594   595    1
   595   598    1
   595   599    1
   596   600    1
   596   601    1
   597   592    1
   600   598    1
   601   598    1
   602   595    1
   602   597    1
   602   600    1
   603   596    1
   603   599    1
   603   631    1
   604   601    1
   604   608    1
   604   611    1
   604   632    1
   605   602    1
   605   609    1
   605   610    1
   605   612    1
   606   603    1
   606   611    1
   606   630    1
   607   604    1
   607   609    1
   607   610    1
   607   631    1
   608   612    1
   608   628    1
   608   629    1
   608   631    1
   610   613    1
   610   617    1
   610   623    1
   610   626    1
   611   609    1
   611   614    1
   611   618    1
   611   628    1
   611   629    1
   611   640    1
   612   155    1
   612   619    1
   612   623    1
   612   639    1
   613   634    1
   613   637    1
   615   159    1
   615   161    1
   615   163    1
   615   603    1
   615   605    1
   615   611    1
   615   612    1
   615   640    1
   616   162    1
   616   164    1
   616   602    1
   616   604    1
   616   606    1
   616   610    1
   616   612    1
   616   613    1
   616   637    1
   616   639    1
   617   155    1
   617   614    1
   617   620    1
   617   621    1
   617   624    1
   618    98    1
   618   156    1
   618   614    1
   618   622    1
   618   623    1
   619   155    1
   619   613    1
   619   624    1
   619   629    1
   620   622    1
   620   623    1
   620   640    1
   621   625    1
   621   640    1
   622   624    1
   622   629    1
   623   627    1
   625   627    1
   625   629    1
   626   621    1
   626   629    1
   628   617    1
   628   623    1
   628   625    1
   629   613    1
   629   640    1
   630   609    1
   630   612    1
   630   618    1
   630   621    1
   630   624    1
   630   627    1
   631   613    1
   631   614    1
   631   617    1
   631   630    1
   631   634    1
   632   592    1
   632   598    1
   632   599    1
   632   635    1
   633   161    1
   633   165    1
   633   601    1
   633   605    1
   633   611    1
   633   614    1
   633   632    1
   633   634    1
   633   635    1
   635   170    1
   635   634    1
   635   636    1
   636   158    1
   636   171    1
   636   531    1
   636   594    1
   636   637    1
   636   638    1
   638   637    1
   638   639    1
   638   643    1
   639   640    1
   642    98    1
   642   158    1
   642   638    1
   642   639    1
   642   640    1
   642   641    1
   644   537    1
   644   643    1
   644   678    1
   645    87    1
   645    89    1
   645    97    1
   645   153    1
   645   642    1
   645   643    1
   647    87    1
   647    97    1
   647    99    1
   647   101    1
   647   151    1
   647   646    1
   648    82    1
   648    86    1
   648   125    1
   648   152    1
   648   647    1
   648   653    1
   649    81    1
   649    89    1
   649   646    1
   649   648    1
   649   651    1
   650    82    1
   650   658    1
   650   675    1
   651   652    1
   652   129    1
   653    81    1
   653   120    1
   654   129    1
   654   133    1
   654   135    1
   654   146    1
   654   653    1
   655    78    1
   655    81    1
   655   651    1
   655   654    1
   656    77    1
   656   131    1
   656   133    1
   656   135    1
   656   655    1
   656   657    1
   657    71    1
   657    73    1
   657   658    1
   659    65    1
   659   658    1
   659   662    1
   659   664    1
   660    64    1
   660    66    1
   660   665    1
   660   674    1
   661    65    1
   661   664    1
   662    89    1
   662   663    1
   663   666    1
   664    66    1
   664   668    1
   664   669    1
   664   676    1
   666   668    1
   667   663    1
   667   676    1
   667   679    1
   669   666    1
   670    48    1
   670    49    1
   670    57    1
   670    59    1
   670   665    1
   670   668    1
   670   681    1
   670   685    1
   671    46    1
   671    47    1
   671    57    1
   671    58    1
   671   667    1
   671   672    1
   671   676    1
   671   686    1
   672   663    1
   672   665    1
   672   668    1
   673   651    1
   673   663    1
   673   674    1
   674    61    1
   674   666    1
   674   667    1
   674   670    1
   674   675    1
   674   679    1
   676    57    1
   676   675    1
   677    58    1
   677    89    1
   677    90    1
   677    93    1
   677   535    1
   677   538    1
   677   676    1
   677   678    1
   678   546    1
   678   679    1
   681    59    1
   681   679    1
   681   680    1
   681   694    1
   682    58    1
   682   669    1
   682   679    1
   682   685    1
   683    45    1
   683   669    1
   683   679    1
   683   681    1
   683   684    1
   684    43    1
   684    49    1
   684   685    1
   687   685    1
   688    49    1
   688   689    1
   688   694    1
   689    35    1
   689   687    1
   689   690    1
   690    22    1
   690    25    1
   691    12    1
   691    13    1
   691    17    1
   691    31    1
   691   688    1
   691   690    1
   691   692    1
   692   323    1
   693   315    1
   693   324    1
   693   694    1
   695     7    1
   695     8    1
   695    13    1
   695    53    1
   695    57    1
   695   546    1
   695   680    1
   695   681    1
   695   694    1
   696     8    1
   696    12    1
   696    13    1
   696   324    1
   696   341    1
   696   343    1
   696   695    1
   696   697    1
   696   698    1
   697     6    1
   697    12    1
   697    54    1
   697    56    1
   697   545    1
   697   680    1
   697   698    1
   698   326    1
   698   704    1
   699   698    1
   700   547    1
   700   680    1
   700   699    1
   701     3    1
   701     8    1
   701   700    1
   701   702    1
   702   551    1
   703   702    1
   704   703    1
   705     3    1
   705   268    1
   705   270    1
   705   273    1
   705   337    1
   705   509    1
   705   556    1
   705   704    1
   706     3    1
   706   265    1
   706   268    1
   706   271    1
   706   518    1
   706   704    1
